# vtk DataFile Version 2.0
Curve_init.vtk, Created by Freefem++ 
ASCII
DATASET UNSTRUCTURED_GRID
POINTS 60 float
-0.09589978 0.00000000 2.13116455
-0.09974366 0.00000000 1.96718884
-0.09077824 0.00000000 1.80341327
-0.06905822 0.00000000 1.64083695
-0.03471608 0.00000000 1.48045170
0.00390498 -0.10000000 2.12491870
0.00024414 -0.10000000 1.96875131
0.00878263 -0.10000000 1.81277454
0.02946837 -0.10000000 1.65793991
0.06217516 -0.10000000 1.50519204
0.10370973 0.00000000 2.11867261
0.10023193 0.00000000 1.97031367
0.10834350 0.00000000 1.82213581
0.12799494 0.00000000 1.67504299
0.15906639 0.00000000 1.52993250
0.00390498 -0.40000001 2.12491870
0.00024414 -0.40000001 1.96875131
0.00878263 -0.40000001 1.81277454
0.02946837 -0.40000001 1.65793991
0.06217516 -0.40000001 1.50519204
0.00390498 0.10000000 2.12491870
0.00024414 0.10000000 1.96875131
0.00878263 0.10000000 1.81277454
0.02946837 0.10000000 1.65793991
0.06217516 0.10000000 1.50519204
0.00390498 0.40000001 2.12491870
0.00024414 0.40000001 1.96875131
0.00878263 0.40000001 1.81277454
0.02946837 0.40000001 1.65793991
0.06217516 0.40000001 1.50519204
-0.39531404 0.00000000 2.14990234
-0.39970705 0.00000000 1.96250153
-0.38946086 0.00000000 1.77532947
-0.36463797 0.00000000 1.58952796
-0.32538980 0.00000000 1.40623045
-0.99414253 0.00000000 2.18737793
-0.99963379 0.00000000 1.95312691
-0.98682606 0.00000000 1.71916175
-0.95579743 0.00000000 1.48690999
-0.90673727 0.00000000 1.25778818
0.00390498 -1.00000000 2.12491870
0.00024414 -1.00000000 1.96875131
0.00878263 -1.00000000 1.81277454
0.02946837 -1.00000000 1.65793991
0.06217516 -1.00000000 1.50519204
0.40312397 0.00000000 2.09993482
0.40019530 0.00000000 1.97500098
0.40702611 0.00000000 1.85021961
0.42357469 0.00000000 1.72635198
0.44974011 0.00000000 1.60415363
0.00390498 1.00000000 2.12491870
0.00024414 1.00000000 1.96875131
0.00878263 1.00000000 1.81277454
0.02946837 1.00000000 1.65793991
0.06217516 1.00000000 1.50519204
1.00195253 0.00000000 2.06245923
1.00012207 0.00000000 1.98437560
1.00439131 0.00000000 1.90638721
1.01473415 0.00000000 1.82896996
1.03108764 0.00000000 1.75259602

CELLS 348 1608
4 23 8 24 13
4 8 13 14 24
4 8 24 14 9
4 22 7 23 12
4 7 12 13 23
4 7 23 13 8
4 21 6 22 11
4 6 11 12 22
4 6 22 12 7
4 20 5 21 10
4 5 10 11 21
4 5 21 11 6
4 3 8 24 23
4 3 8 9 24
4 3 4 24 9
4 2 7 23 22
4 2 7 8 23
4 2 3 23 8
4 1 6 22 21
4 1 6 7 22
4 1 2 22 7
4 0 5 21 20
4 0 5 6 21
4 0 1 21 6
4 23 48 49 28
4 23 28 49 29
4 23 24 29 49
4 22 47 48 27
4 22 27 48 28
4 22 23 28 48
4 21 46 47 26
4 21 26 47 27
4 21 22 27 47
4 20 45 46 25
4 20 25 46 26
4 20 21 26 46
4 23 13 49 48
4 23 13 24 49
4 13 24 49 14
4 22 12 48 47
4 22 12 23 48
4 12 23 48 13
4 21 11 47 46
4 21 11 22 47
4 11 22 47 12
4 20 10 46 45
4 20 10 21 46
4 10 21 46 11
4 13 18 49 48
4 13 18 19 49
4 13 14 49 19
4 12 17 48 47
4 12 17 18 48
4 12 13 48 18
4 11 16 47 46
4 11 16 17 47
4 11 12 47 17
4 10 15 46 45
4 10 15 16 46
4 10 11 46 16
4 13 8 19 18
4 13 8 14 19
4 8 14 19 9
4 12 7 18 17
4 12 7 13 18
4 7 13 18 8
4 11 6 17 16
4 11 6 12 17
4 6 12 17 7
4 10 5 16 15
4 10 5 11 16
4 5 11 16 6
4 8 33 34 18
4 8 18 34 19
4 8 9 19 34
4 7 32 33 17
4 7 17 33 18
4 7 8 18 33
4 6 31 32 16
4 6 16 32 17
4 6 7 17 32
4 5 30 31 15
4 5 15 31 16
4 5 6 16 31
4 33 8 34 3
4 8 3 9 34
4 3 34 4 9
4 32 7 33 2
4 7 2 8 33
4 2 33 3 8
4 31 6 32 1
4 6 1 7 32
4 1 32 2 7
4 30 5 31 0
4 5 0 6 31
4 0 31 1 6
4 33 3 34 23
4 3 23 24 34
4 3 34 24 4
4 32 2 33 22
4 2 22 23 33
4 2 33 23 3
4 31 1 32 21
4 1 21 22 32
4 1 32 22 2
4 30 0 31 20
4 0 20 21 31
4 0 31 21 1
4 33 23 34 28
4 23 28 29 34
4 23 34 29 24
4 32 22 33 27
4 22 27 28 33
4 22 33 28 23
4 31 21 32 26
4 21 26 27 32
4 21 32 27 22
4 30 20 31 25
4 20 25 26 31
4 20 31 26 21
4 58 53 59 48
4 53 48 54 59
4 48 59 49 54
4 57 52 58 47
4 52 47 53 58
4 47 58 48 53
4 56 51 57 46
4 51 46 52 57
4 46 57 47 52
4 55 50 56 45
4 50 45 51 56
4 45 56 46 51
4 28 48 54 53
4 28 48 49 54
4 28 29 54 49
4 27 47 53 52
4 27 47 48 53
4 27 28 53 48
4 26 46 52 51
4 26 46 47 52
4 26 27 52 47
4 25 45 51 50
4 25 45 46 51
4 25 26 51 46
4 33 28 54 53
4 33 28 34 54
4 28 34 54 29
4 32 27 53 52
4 32 27 33 53
4 27 33 53 28
4 31 26 52 51
4 31 26 32 52
4 26 32 52 27
4 30 25 51 50
4 30 25 31 51
4 25 31 51 26
4 53 38 54 33
4 38 33 39 54
4 33 54 34 39
4 52 37 53 32
4 37 32 38 53
4 32 53 33 38
4 51 36 52 31
4 36 31 37 52
4 31 52 32 37
4 50 35 51 30
4 35 30 36 51
4 30 51 31 36
4 38 43 44 33
4 38 33 44 39
4 33 39 34 44
4 37 42 43 32
4 37 32 43 38
4 32 38 33 43
4 36 41 42 31
4 36 31 42 37
4 31 37 32 42
4 35 40 41 30
4 35 30 41 36
4 30 36 31 41
4 33 43 44 18
4 33 18 44 34
4 18 34 19 44
4 32 42 43 17
4 32 17 43 33
4 17 33 18 43
4 31 41 42 16
4 31 16 42 32
4 16 32 17 42
4 30 40 41 15
4 30 15 41 31
4 15 31 16 41
4 18 43 49 48
4 18 43 44 49
4 18 19 49 44
4 17 42 48 47
4 17 42 43 48
4 17 18 48 43
4 16 41 47 46
4 16 41 42 47
4 16 17 47 42
4 15 40 46 45
4 15 40 41 46
4 15 16 46 41
4 43 58 59 48
4 43 48 59 49
4 43 44 49 59
4 42 57 58 47
4 42 47 58 48
4 42 43 48 58
4 41 56 57 46
4 41 46 57 47
4 41 42 47 57
4 40 55 56 45
4 40 45 56 46
4 40 41 46 56
3 24 14 9
3 4 24 9
3 24 29 49
3 24 49 14
3 14 49 19
3 14 19 9
3 9 19 34
3 34 4 9
3 34 24 4
3 34 29 24
3 59 49 54
3 29 54 49
3 34 54 29
3 54 34 39
3 39 34 44
3 34 19 44
3 19 49 44
3 44 49 59
3 10 20 5
3 20 0 5
3 25 20 45
3 45 20 10
3 45 10 15
3 15 10 5
3 15 5 30
3 0 30 5
3 20 30 0
3 25 30 20
3 45 55 50
3 50 25 45
3 50 30 25
3 30 50 35
3 30 35 40
3 15 30 40
3 45 15 40
3 45 40 55
3 13 24 23
3 24 13 14
3 12 23 22
3 23 12 13
3 11 22 21
3 22 11 12
3 10 21 20
3 21 10 11
3 23 24 3
3 4 3 24
3 22 23 2
3 3 2 23
3 21 22 1
3 2 1 22
3 20 21 0
3 1 0 21
3 3 9 8
3 9 3 4
3 2 8 7
3 8 2 3
3 1 7 6
3 7 1 2
3 0 6 5
3 6 0 1
3 8 14 13
3 14 8 9
3 7 13 12
3 13 7 8
3 6 12 11
3 12 6 7
3 5 11 10
3 11 5 6
3 48 49 28
3 29 28 49
3 47 48 27
3 28 27 48
3 46 47 26
3 27 26 47
3 45 46 25
3 26 25 46
3 28 34 33
3 34 28 29
3 27 33 32
3 33 27 28
3 26 32 31
3 32 26 27
3 25 31 30
3 31 25 26
3 33 34 18
3 19 18 34
3 32 33 17
3 18 17 33
3 31 32 16
3 17 16 32
3 30 31 15
3 16 15 31
3 18 49 48
3 49 18 19
3 17 48 47
3 48 17 18
3 16 47 46
3 47 16 17
3 15 46 45
3 46 15 16
3 58 59 53
3 54 53 59
3 57 58 52
3 53 52 58
3 56 57 51
3 52 51 57
3 55 56 50
3 51 50 56
3 53 54 38
3 39 38 54
3 52 53 37
3 38 37 53
3 51 52 36
3 37 36 52
3 50 51 35
3 36 35 51
3 38 44 43
3 44 38 39
3 37 43 42
3 43 37 38
3 36 42 41
3 42 36 37
3 35 41 40
3 41 35 36
3 43 59 58
3 59 43 44
3 42 58 57
3 58 42 43
3 41 57 56
3 57 41 42
3 40 56 55
3 56 40 41

CELL_TYPES 348
10 10 10 10 10 10 10 10 10 10 10 10 10 10 10 10 10 10 10 10 10 10 10 10 10 10 10 10 10 10 10 10 10 10 10 10 10 10 10 10 10 10 10 10 10 10 10 10 10 10 10 10 10 10 10 10 10 10 10 10 10 10 10 10 10 10 10 10 10 10 10 10 10 10 10 10 10 10 10 10 10 10 10 10 10 10 10 10 10 10 10 10 10 10 10 10 10 10 10 10 10 10 10 10 10 10 10 10 10 10 10 10 10 10 10 10 10 10 10 10 10 10 10 10 10 10 10 10 10 10 10 10 10 10 10 10 10 10 10 10 10 10 10 10 10 10 10 10 10 10 10 10 10 10 10 10 10 10 10 10 10 10 10 10 10 10 10 10 10 10 10 10 10 10 10 10 10 10 10 10 10 10 10 10 10 10 10 10 10 10 10 10 10 10 10 10 10 10 10 10 10 10 10 10 10 10 10 10 10 10 10 10 10 10 10 10 5 5 5 5 5 5 5 5 5 5 5 5 5 5 5 5 5 5 5 5 5 5 5 5 5 5 5 5 5 5 5 5 5 5 5 5 5 5 5 5 5 5 5 5 5 5 5 5 5 5 5 5 5 5 5 5 5 5 5 5 5 5 5 5 5 5 5 5 5 5 5 5 5 5 5 5 5 5 5 5 5 5 5 5 5 5 5 5 5 5 5 5 5 5 5 5 5 5 5 5 5 5 5 5 5 5 5 5 5 5 5 5 5 5 5 5 5 5 5 5 5 5 5 5 5 5 5 5 5 5 5 5 
CELL_DATA 348
Scalars  Label int1
LOOKUP_TABLE FreeFempp_table
0
0
0
0
0
0
0
0
0
0
0
0
0
0
0
0
0
0
0
0
0
0
0
0
1
1
1
1
1
1
1
1
1
1
1
1
1
1
1
1
1
1
1
1
1
1
1
1
1
1
1
1
1
1
1
1
1
1
1
1
1
1
1
1
1
1
1
1
1
1
1
1
1
1
1
1
1
1
1
1
1
1
1
1
1
1
1
1
1
1
1
1
1
1
1
1
1
1
1
1
1
1
1
1
1
1
1
1
1
1
1
1
1
1
1
1
1
1
1
1
2
2
2
2
2
2
2
2
2
2
2
2
2
2
2
2
2
2
2
2
2
2
2
2
2
2
2
2
2
2
2
2
2
2
2
2
2
2
2
2
2
2
2
2
2
2
2
2
2
2
2
2
2
2
2
2
2
2
2
2
2
2
2
2
2
2
2
2
2
2
2
2
2
2
2
2
2
2
2
2
2
2
2
2
2
2
2
2
2
2
2
2
2
2
2
2
1
1
1
1
1
1
1
1
1
1
1
1
1
1
1
1
1
1
1
1
1
1
1
1
1
1
1
1
1
1
1
1
1
1
1
1
3
3
3
3
3
3
3
3
3
3
3
3
3
3
3
3
3
3
3
3
3
3
3
3
3
3
3
3
3
3
3
3
3
3
3
3
3
3
3
3
3
3
3
3
3
3
3
3
3
3
3
3
3
3
3
3
3
3
3
3
3
3
3
3
4
4
4
4
4
4
4
4
4
4
4
4
4
4
4
4
4
4
4
4
4
4
4
4
4
4
4
4
4
4
4
4

LOOKUP_TABLE FreeFempp_table 5
1.00000000 0.00000000 0.00000000 1.00000000
1.00000000 1.00000000 0.00000000 1.00000000
1.00000000 0.00000000 1.00000000 1.00000000
0.00000000 1.00000000 0.00000000 1.00000000
0.00000000 1.00000000 1.00000000 1.00000000

FIELD FieldData 2
init 3 348 float
-3.48337889e-01 -5.72857976e-01 2.72082716e-01 -1.68002173e-01 -6.78235054e-01 2.79099107e-01 6.33007362e-02 -5.00522375e-01 2.89976746e-01 -3.20624560e-01 -4.19545174e-01 2.38659158e-01 -1.36106372e-01 -5.82588613e-01 2.45544598e-01 1.37118071e-01 -3.44229937e-01 2.54319638e-01 -3.00094724e-01 -3.25210273e-01 2.09971398e-01 -1.12094119e-01 -5.18080592e-01 2.16403902e-01 1.77648500e-01 -2.36943230e-01 2.23451614e-01 -2.93762386e-01 -3.15194935e-01 1.85585201e-01 -9.78289843e-02 -5.05838931e-01 1.91403821e-01 1.92183167e-01 -2.10965648e-01 1.97105080e-01 -2.16320693e-01 -8.32199007e-02 2.74838060e-01 2.03675017e-01 -1.50765441e-02 2.84374982e-01 6.58801273e-02 2.40195855e-01 2.96636343e-01 -2.05116764e-01 7.06174672e-02 2.39773765e-01 2.60060191e-01 1.43705726e-01 2.47999921e-01 8.84015933e-02 3.55252236e-01 2.57640719e-01 -1.98566198e-01 1.64940074e-01 2.10104406e-01 2.85675853e-01 2.52388239e-01 2.17085794e-01 9.90377218e-02 4.48152632e-01 2.24632919e-01 -2.03999460e-01 1.74977019e-01 1.85222462e-01 2.87581027e-01 2.79550105e-01 1.91107407e-01 9.52829942e-02 4.89366531e-01 1.97059035e-01 -5.54003417e-01 -5.56039572e-01 2.34866306e-01 -6.93220258e-01 -4.69658881e-01 2.47388512e-01 -7.50399113e-01 -5.91279089e-01 2.65449852e-01 -5.37714839e-01 -4.97018456e-01 2.09765136e-01 -6.78461015e-01 -3.83952737e-01 2.18726292e-01 -7.44959772e-01 -4.62044477e-01 2.34419048e-01 -5.23472428e-01 -4.65403676e-01 1.87421426e-01 -6.66325808e-01 -3.34007591e-01 1.93728760e-01 -7.29657233e-01 -3.68656605e-01 2.07274482e-01 -5.16514003e-01 -4.66025442e-01 1.67679429e-01 -6.62578821e-01 -3.25348973e-01 1.72126338e-01 -7.21617520e-01 -3.35823536e-01 1.83814526e-01 -4.29402143e-01 -7.27123320e-01 2.42050037e-01 -6.22558475e-01 -7.39941299e-01 2.64303833e-01 -4.42222774e-01 -8.45318377e-01 2.71320224e-01 -4.08086449e-01 -6.86906457e-01 2.16682836e-01 -6.12924159e-01 -6.35355175e-01 2.34168425e-01 -4.28405970e-01 -7.98398674e-01 2.41053879e-01 -3.88352513e-01 -6.66141987e-01 1.93919420e-01 -5.93530059e-01 -5.59363484e-01 2.07693353e-01 -4.05529469e-01 -7.52233863e-01 2.14125857e-01 -3.75418395e-01 -6.69845462e-01 1.73666373e-01 -5.80862701e-01 -5.36218047e-01 1.84677601e-01 -3.84929329e-01 -7.26862073e-01 1.90496221e-01 4.71232692e-03 -5.51025033e-01 2.33525604e-01 2.30232790e-01 -3.34651470e-01 2.46047795e-01 -2.35459544e-02 -6.16126835e-01 2.61588603e-01 2.56802086e-02 -5.61755359e-01 2.09216252e-01 2.54956961e-01 -3.34105760e-01 2.18177408e-01 5.70848444e-03 -6.22300386e-01 2.32529446e-01 4.26083580e-02 -5.70693374e-01 1.87355101e-01 2.71197468e-01 -3.38763773e-01 1.93662435e-01 2.82371938e-02 -6.27082705e-01 2.06659257e-01 5.66083007e-02 -5.78177631e-01 1.67863116e-01 2.82124847e-01 -3.49101603e-01 1.72310010e-01 4.60315645e-02 -6.31413460e-01 1.83931902e-01 5.04453361e-01 -1.67568132e-01 2.53826678e-01 2.50674635e-01 -4.49043483e-01 2.69367516e-01 4.81977552e-01 -2.71330804e-01 2.80245125e-01 5.47256589e-01 -1.18295737e-01 2.22668126e-01 2.98008084e-01 -4.06490326e-01 2.37020165e-01 5.71232498e-01 -1.68131664e-01 2.45795205e-01 5.64632833e-01 -1.04610533e-01 1.95940495e-01 3.21672559e-01 -3.92929465e-01 2.08937317e-01 6.11415148e-01 -1.11792088e-01 2.15985030e-01 5.69225192e-01 -1.28078490e-01 1.73217624e-01 3.33131880e-01 -4.10390347e-01 1.84839502e-01 6.23144031e-01 -1.15517043e-01 1.90540761e-01 5.35313725e-01 4.36973572e-01 2.61913925e-01 6.45008981e-01 2.78858334e-01 2.65120476e-01 6.30890250e-01 1.70903400e-01 2.83181816e-01 5.38517296e-01 4.65524465e-01 2.22879201e-01 6.67023599e-01 3.20701540e-01 2.28041962e-01 6.98433876e-01 2.68638641e-01 2.43734702e-01 5.27430058e-01 4.68602657e-01 1.91680863e-01 6.67614996e-01 3.28925848e-01 1.97527170e-01 7.20896184e-01 3.20925385e-01 2.11072877e-01 5.11414528e-01 4.45398957e-01 1.66845247e-01 6.58720613e-01 3.02495003e-01 1.72587380e-01 7.18274415e-01 3.15400243e-01 1.84275582e-01 4.21909243e-01 6.40944004e-01 2.71853000e-01 5.26010811e-01 3.81886393e-01 2.84791142e-01 3.88215929e-01 6.37158811e-01 2.97052473e-01 4.12210912e-01 6.65265501e-01 2.30911523e-01 5.75954318e-01 4.70906705e-01 2.44598702e-01 4.04295713e-01 6.82453215e-01 2.54239500e-01 3.92497092e-01 6.69615149e-01 1.98311865e-01 5.87109387e-01 5.19835293e-01 2.11624756e-01 4.00471240e-01 7.15599716e-01 2.19171867e-01 3.70719105e-01 6.53602839e-01 1.72469452e-01 5.77210784e-01 5.16778171e-01 1.84775904e-01 3.84912759e-01 7.26594567e-01 1.90727532e-01 -4.74423394e-02 5.14381647e-01 2.71853000e-01 -3.56423855e-01 1.27074853e-01 2.84791142e-01 -2.48671621e-02 5.08909643e-01 2.97052473e-01 -7.59830549e-02 5.50217450e-01 2.30911523e-01 -3.81591201e-01 2.29296222e-01 2.44598702e-01 -6.50558472e-02 5.55890858e-01 2.54239500e-01 -9.76494029e-02 5.68087280e-01 1.98311865e-01 -3.91231090e-01 3.03259343e-01 2.11624756e-01 -8.77226964e-02 6.00551605e-01 2.19171867e-01 -1.19040854e-01 5.63912928e-01 1.72469452e-01 -4.02695686e-01 3.25560361e-01 1.84775904e-01 -1.05233744e-01 6.25066698e-01 1.90727532e-01 -3.04060847e-01 1.95827305e-01 2.61913925e-01 -5.59102774e-01 -9.22808126e-02 2.65120476e-01 -6.16281629e-01 -2.13901013e-01 2.83181816e-01 -3.21119189e-01 2.49942839e-01 2.22879201e-01 -5.62635839e-01 -9.46395472e-03 2.28041962e-01 -6.29134655e-01 -8.75556991e-02 2.43734702e-01 -3.34297806e-01 2.78675288e-01 1.91680863e-01 -5.65555334e-01 3.84649299e-02 1.97527170e-01 -6.28886819e-01 3.81590659e-03 2.11072877e-01 -3.49899381e-01 2.77560979e-01 1.66845247e-01 -5.74174702e-01 4.62575108e-02 1.72587380e-01 -6.33213401e-01 3.57829258e-02 1.84275582e-01 -1.74763188e-01 -3.34297001e-01 1.44692615e-01 -2.10925952e-01 -3.15605640e-01 1.54549450e-01 -2.05718279e-01 -4.53408122e-01 1.79412350e-01 -1.66436538e-01 -3.36336553e-01 1.32850215e-01 -2.02982411e-01 -3.09537828e-01 1.39325529e-01 -1.93488285e-01 -4.59551632e-01 1.63417712e-01 -1.58644423e-01 -3.35830033e-01 1.21774040e-01 -1.96081206e-01 -3.03055584e-01 1.25624508e-01 -1.82060987e-01 -4.61392075e-01 1.48474678e-01 -1.51398212e-01 -3.32638830e-01 1.11475274e-01 -1.90158293e-01 -2.96033531e-01 1.13364965e-01 -1.71542749e-01 -4.58866179e-01 1.34672359e-01 -3.70397240e-01 -3.27794552e-01 1.82235703e-01 -3.65189582e-01 -4.65597034e-01 2.07098603e-01 -5.04406393e-01 -3.79216373e-01 2.19620809e-01 -3.61460268e-01 -3.03197235e-01 1.61257327e-01 -3.51966143e-01 -4.53211039e-01 1.85349509e-01 -4.92712349e-01 -3.40145320e-01 1.94310665e-01 -3.55044335e-01 -2.85415232e-01 1.42969728e-01 -3.41024101e-01 -4.43751723e-01 1.65819898e-01 -4.83877510e-01 -3.12355638e-01 1.72127247e-01 -3.51004630e-01 -2.74436444e-01 1.27128750e-01 -3.32389086e-01 -4.37269092e-01 1.48436144e-01 -4.78453875e-01 -2.96592593e-01 1.52883053e-01 -2.54572093e-01 4.66942266e-02 1.91551372e-01 -1.15246966e-01 2.86269814e-01 2.34146237e-01 -3.70288908e-01 -1.83830387e-03 2.37352774e-01 -2.60689795e-01 6.92752749e-02 1.65055722e-01 -1.35370508e-01 2.93750256e-01 1.98463574e-01 -3.76887172e-01 3.43434587e-02 2.03626335e-01 -2.66640216e-01 8.61912295e-02 1.43430769e-01 -1.51849508e-01 3.00327241e-01 1.70079350e-01 -3.83107036e-01 6.01168796e-02 1.75925642e-01 -2.72794127e-01 9.75435078e-02 1.25833511e-01 -1.65774480e-01 3.06317329e-01 1.47601962e-01 -3.90049756e-01 7.50138685e-02 1.53344095e-01 -2.46511847e-02 1.85891002e-01 1.74792856e-01 9.18852612e-02 2.96339869e-01 1.94599032e-01 1.27121285e-01 4.32485819e-01 2.29835063e-01 -4.18443792e-02 1.87788427e-01 1.46797329e-01 6.15931787e-02 2.85773605e-01 1.58323437e-01 9.21431035e-02 4.16369706e-01 1.88873366e-01 -5.48509136e-02 1.93050176e-01 1.25202656e-01 3.96758281e-02 2.82869875e-01 1.31587282e-01 6.59886226e-02 4.08808976e-01 1.57900065e-01 -6.48997352e-02 2.01667652e-01 1.08493596e-01 2.36589797e-02 2.87121475e-01 1.11801095e-01 4.63556014e-02 4.09750789e-01 1.34497717e-01 2.24464342e-01 3.28782350e-01 1.74792856e-01 2.16163456e-01 3.72600466e-01 1.94599032e-01 2.51399487e-01 5.08746445e-01 2.29835063e-01 2.07978487e-01 3.12742054e-01 1.46797329e-01 1.86430514e-01 3.52404356e-01 1.58323437e-01 2.16980442e-01 4.83000457e-01 1.88873366e-01 1.95134610e-01 3.02644789e-01 1.25202656e-01 1.64661363e-01 3.41192752e-01 1.31587282e-01 1.90974161e-01 4.67131853e-01 1.57900065e-01 1.85097396e-01 2.98267305e-01 1.08493596e-01 1.48658976e-01 3.38393182e-01 1.11801095e-01 1.71355590e-01 4.61022496e-01 1.34497717e-01 3.64566416e-01 3.04169446e-01 1.91551372e-01 3.79054189e-01 4.77114260e-01 2.34146237e-01 4.88749504e-01 3.18999022e-01 2.37352774e-01 3.60575587e-01 2.94762462e-01 1.65055722e-01 3.60909343e-01 4.60914552e-01 1.98463574e-01 4.89415646e-01 3.16091627e-01 2.03626335e-01 3.54926676e-01 2.84185350e-01 1.43430769e-01 3.44717354e-01 4.47049648e-01 1.70079350e-01 4.84902352e-01 3.07372808e-01 1.75925642e-01 3.48756969e-01 2.72291213e-01 1.25833511e-01 3.30779493e-01 4.35737103e-01 1.47601962e-01 4.78085548e-01 2.92833149e-01 1.53344095e-01 1.30780160e-01 -2.77543366e-01 2.02224523e-01 2.43803248e-01 -6.35524839e-02 1.87173709e-01 3.54632050e-01 -5.83790392e-02 2.19620809e-01 1.45113438e-01 -2.88910151e-01 1.81182235e-01 2.55036384e-01 -7.34465420e-02 1.66026041e-01 3.73590469e-01 -5.83971664e-02 1.94310665e-01 1.55799851e-01 -3.00021321e-01 1.62293196e-01 2.62008041e-01 -8.56680572e-02 1.47484228e-01 3.84131879e-01 -6.50996938e-02 1.72127247e-01 1.64081201e-01 -3.11050028e-01 1.45464420e-01 2.66327798e-01 -1.00439779e-01 1.31347418e-01 3.89681429e-01 -7.87733272e-02 1.52883053e-01 -4.99258526e-02 -2.67666221e-01 1.44692615e-01 -7.97715113e-02 -3.79938304e-01 1.74538270e-01 3.32515761e-02 -1.65947422e-01 1.59487441e-01 -4.14509922e-02 -2.78013676e-01 1.32850215e-01 -6.78512082e-02 -3.95784289e-01 1.59250438e-01 4.20717411e-02 -1.80320665e-01 1.44094244e-01 -3.36444378e-02 -2.84558296e-01 1.21774040e-01 -5.68183698e-02 -4.06061172e-01 1.44947976e-01 4.93898243e-02 -1.91707909e-01 1.30138993e-01 -2.64010653e-02 -2.87310898e-01 1.11475274e-01 -4.66264337e-02 -4.10795152e-01 1.31700635e-01 5.56201637e-02 -2.00184897e-01 1.17583640e-01 6.33007362e-02 -5.00522375e-01 2.89976746e-01 6.58801273e-02 2.40195855e-01 2.96636343e-01 -7.50399113e-01 -5.91279089e-01 2.65449852e-01 -4.42222774e-01 -8.45318377e-01 2.71320224e-01 -2.35459544e-02 -6.16126835e-01 2.61588603e-01 4.81977552e-01 -2.71330804e-01 2.80245125e-01 6.30890250e-01 1.70903400e-01 2.83181816e-01 3.88215929e-01 6.37158811e-01 2.97052473e-01 -2.48671621e-02 5.08909643e-01 2.97052473e-01 -6.16281629e-01 -2.13901013e-01 2.83181816e-01 -2.05718279e-01 -4.53408122e-01 1.79412350e-01 -5.04406393e-01 -3.79216373e-01 2.19620809e-01 -3.70288908e-01 -1.83830387e-03 2.37352774e-01 1.27121285e-01 4.32485819e-01 2.29835063e-01 2.51399487e-01 5.08746445e-01 2.29835063e-01 4.88749504e-01 3.18999022e-01 2.37352774e-01 3.54632050e-01 -5.83790392e-02 2.19620809e-01 3.32515761e-02 -1.65947422e-01 1.59487441e-01 -2.93762386e-01 -3.15194935e-01 1.85585201e-01 -2.03999460e-01 1.74977019e-01 1.85222462e-01 -5.16514003e-01 -4.66025442e-01 1.67679429e-01 -3.75418395e-01 -6.69845462e-01 1.73666373e-01 5.66083007e-02 -5.78177631e-01 1.67863116e-01 5.69225192e-01 -1.28078490e-01 1.73217624e-01 5.11414528e-01 4.45398957e-01 1.66845247e-01 3.70719105e-01 6.53602839e-01 1.72469452e-01 -1.19040854e-01 5.63912928e-01 1.72469452e-01 -3.49899381e-01 2.77560979e-01 1.66845247e-01 -1.51398212e-01 -3.32638830e-01 1.11475274e-01 -3.51004630e-01 -2.74436444e-01 1.27128750e-01 -2.72794127e-01 9.75435078e-02 1.25833511e-01 -6.48997352e-02 2.01667652e-01 1.08493596e-01 1.85097396e-01 2.98267305e-01 1.08493596e-01 3.48756969e-01 2.72291213e-01 1.25833511e-01 1.64081201e-01 -3.11050028e-01 1.45464420e-01 -2.64010653e-02 -2.87310898e-01 1.11475274e-01 -6.22558475e-01 -7.39941299e-01 2.64303833e-01 -4.42222774e-01 -8.45318377e-01 2.71320224e-01 -6.12924159e-01 -6.35355175e-01 2.34168425e-01 -4.28405970e-01 -7.98398674e-01 2.41053879e-01 -5.93530059e-01 -5.59363484e-01 2.07693353e-01 -4.05529469e-01 -7.52233863e-01 2.14125857e-01 -5.80862701e-01 -5.36218047e-01 1.84677601e-01 -3.84929329e-01 -7.26862073e-01 1.90496221e-01 -3.56423855e-01 1.27074853e-01 2.84791142e-01 -2.48671621e-02 5.08909643e-01 2.97052473e-01 -3.81591201e-01 2.29296222e-01 2.44598702e-01 -6.50558472e-02 5.55890858e-01 2.54239500e-01 -3.91231090e-01 3.03259343e-01 2.11624756e-01 -8.77226964e-02 6.00551605e-01 2.19171867e-01 -4.02695686e-01 3.25560361e-01 1.84775904e-01 -1.05233744e-01 6.25066698e-01 1.90727532e-01 5.26010811e-01 3.81886393e-01 2.84791142e-01 3.88215929e-01 6.37158811e-01 2.97052473e-01 5.75954318e-01 4.70906705e-01 2.44598702e-01 4.04295713e-01 6.82453215e-01 2.54239500e-01 5.87109387e-01 5.19835293e-01 2.11624756e-01 4.00471240e-01 7.15599716e-01 2.19171867e-01 5.77210784e-01 5.16778171e-01 1.84775904e-01 3.84912759e-01 7.26594567e-01 1.90727532e-01 2.50674635e-01 -4.49043483e-01 2.69367516e-01 4.81977552e-01 -2.71330804e-01 2.80245125e-01 2.98008084e-01 -4.06490326e-01 2.37020165e-01 5.71232498e-01 -1.68131664e-01 2.45795205e-01 3.21672559e-01 -3.92929465e-01 2.08937317e-01 6.11415148e-01 -1.11792088e-01 2.15985030e-01 3.33131880e-01 -4.10390347e-01 1.84839502e-01 6.23144031e-01 -1.15517043e-01 1.90540761e-01 -3.65189582e-01 -4.65597034e-01 2.07098603e-01 -5.04406393e-01 -3.79216373e-01 2.19620809e-01 -3.51966143e-01 -4.53211039e-01 1.85349509e-01 -4.92712349e-01 -3.40145320e-01 1.94310665e-01 -3.41024101e-01 -4.43751723e-01 1.65819898e-01 -4.83877510e-01 -3.12355638e-01 1.72127247e-01 -3.32389086e-01 -4.37269092e-01 1.48436144e-01 -4.78453875e-01 -2.96592593e-01 1.52883053e-01 -1.15246966e-01 2.86269814e-01 2.34146237e-01 -3.70288908e-01 -1.83830387e-03 2.37352774e-01 -1.35370508e-01 2.93750256e-01 1.98463574e-01 -3.76887172e-01 3.43434587e-02 2.03626335e-01 -1.51849508e-01 3.00327241e-01 1.70079350e-01 -3.83107036e-01 6.01168796e-02 1.75925642e-01 -1.65774480e-01 3.06317329e-01 1.47601962e-01 -3.90049756e-01 7.50138685e-02 1.53344095e-01 3.79054189e-01 4.77114260e-01 2.34146237e-01 4.88749504e-01 3.18999022e-01 2.37352774e-01 3.60909343e-01 4.60914552e-01 1.98463574e-01 4.89415646e-01 3.16091627e-01 2.03626335e-01 3.44717354e-01 4.47049648e-01 1.70079350e-01 4.84902352e-01 3.07372808e-01 1.75925642e-01 3.30779493e-01 4.35737103e-01 1.47601962e-01 4.78085548e-01 2.92833149e-01 1.53344095e-01 1.30780160e-01 -2.77543366e-01 2.02224523e-01 3.54632050e-01 -5.83790392e-02 2.19620809e-01 1.45113438e-01 -2.88910151e-01 1.81182235e-01 3.73590469e-01 -5.83971664e-02 1.94310665e-01 1.55799851e-01 -3.00021321e-01 1.62293196e-01 3.84131879e-01 -6.50996938e-02 1.72127247e-01 1.64081201e-01 -3.11050028e-01 1.45464420e-01 3.89681429e-01 -7.87733272e-02 1.52883053e-01 -1.74763188e-01 -3.34297001e-01 1.44692615e-01 -2.10925952e-01 -3.15605640e-01 1.54549450e-01 -1.66436538e-01 -3.36336553e-01 1.32850215e-01 -2.02982411e-01 -3.09537828e-01 1.39325529e-01 -1.58644423e-01 -3.35830033e-01 1.21774040e-01 -1.96081206e-01 -3.03055584e-01 1.25624508e-01 -1.51398212e-01 -3.32638830e-01 1.11475274e-01 -1.90158293e-01 -2.96033531e-01 1.13364965e-01 -2.46511847e-02 1.85891002e-01 1.74792856e-01 9.18852612e-02 2.96339869e-01 1.94599032e-01 -4.18443792e-02 1.87788427e-01 1.46797329e-01 6.15931787e-02 2.85773605e-01 1.58323437e-01 -5.48509136e-02 1.93050176e-01 1.25202656e-01 3.96758281e-02 2.82869875e-01 1.31587282e-01 -6.48997352e-02 2.01667652e-01 1.08493596e-01 2.36589797e-02 2.87121475e-01 1.11801095e-01 2.24464342e-01 3.28782350e-01 1.74792856e-01 2.16163456e-01 3.72600466e-01 1.94599032e-01 2.07978487e-01 3.12742054e-01 1.46797329e-01 1.86430514e-01 3.52404356e-01 1.58323437e-01 1.95134610e-01 3.02644789e-01 1.25202656e-01 1.64661363e-01 3.41192752e-01 1.31587282e-01 1.85097396e-01 2.98267305e-01 1.08493596e-01 1.48658976e-01 3.38393182e-01 1.11801095e-01 -4.99258526e-02 -2.67666221e-01 1.44692615e-01 3.32515761e-02 -1.65947422e-01 1.59487441e-01 -4.14509922e-02 -2.78013676e-01 1.32850215e-01 4.20717411e-02 -1.80320665e-01 1.44094244e-01 -3.36444378e-02 -2.84558296e-01 1.21774040e-01 4.93898243e-02 -1.91707909e-01 1.30138993e-01 -2.64010653e-02 -2.87310898e-01 1.11475274e-01 5.56201637e-02 -2.00184897e-01 1.17583640e-01 
scalaire2 1 348 float
0.00000000e+00 0.00000000e+00 0.00000000e+00 0.00000000e+00 0.00000000e+00 0.00000000e+00 0.00000000e+00 0.00000000e+00 0.00000000e+00 0.00000000e+00 0.00000000e+00 0.00000000e+00 0.00000000e+00 0.00000000e+00 0.00000000e+00 0.00000000e+00 0.00000000e+00 0.00000000e+00 0.00000000e+00 0.00000000e+00 0.00000000e+00 0.00000000e+00 0.00000000e+00 0.00000000e+00 0.00000000e+00 0.00000000e+00 0.00000000e+00 0.00000000e+00 0.00000000e+00 0.00000000e+00 0.00000000e+00 0.00000000e+00 0.00000000e+00 0.00000000e+00 0.00000000e+00 0.00000000e+00 0.00000000e+00 0.00000000e+00 0.00000000e+00 0.00000000e+00 0.00000000e+00 0.00000000e+00 0.00000000e+00 0.00000000e+00 0.00000000e+00 0.00000000e+00 0.00000000e+00 0.00000000e+00 0.00000000e+00 0.00000000e+00 0.00000000e+00 0.00000000e+00 0.00000000e+00 0.00000000e+00 0.00000000e+00 0.00000000e+00 0.00000000e+00 0.00000000e+00 0.00000000e+00 0.00000000e+00 0.00000000e+00 0.00000000e+00 0.00000000e+00 0.00000000e+00 0.00000000e+00 0.00000000e+00 0.00000000e+00 0.00000000e+00 0.00000000e+00 0.00000000e+00 0.00000000e+00 0.00000000e+00 0.00000000e+00 0.00000000e+00 0.00000000e+00 0.00000000e+00 0.00000000e+00 0.00000000e+00 0.00000000e+00 0.00000000e+00 0.00000000e+00 0.00000000e+00 0.00000000e+00 0.00000000e+00 0.00000000e+00 0.00000000e+00 0.00000000e+00 0.00000000e+00 0.00000000e+00 0.00000000e+00 0.00000000e+00 0.00000000e+00 0.00000000e+00 0.00000000e+00 0.00000000e+00 0.00000000e+00 0.00000000e+00 0.00000000e+00 0.00000000e+00 0.00000000e+00 0.00000000e+00 0.00000000e+00 0.00000000e+00 0.00000000e+00 0.00000000e+00 0.00000000e+00 0.00000000e+00 0.00000000e+00 0.00000000e+00 0.00000000e+00 0.00000000e+00 0.00000000e+00 0.00000000e+00 0.00000000e+00 0.00000000e+00 0.00000000e+00 0.00000000e+00 0.00000000e+00 0.00000000e+00 0.00000000e+00 0.00000000e+00 0.00000000e+00 0.00000000e+00 0.00000000e+00 0.00000000e+00 0.00000000e+00 0.00000000e+00 0.00000000e+00 0.00000000e+00 0.00000000e+00 0.00000000e+00 0.00000000e+00 0.00000000e+00 0.00000000e+00 0.00000000e+00 0.00000000e+00 0.00000000e+00 0.00000000e+00 0.00000000e+00 0.00000000e+00 0.00000000e+00 0.00000000e+00 0.00000000e+00 0.00000000e+00 0.00000000e+00 0.00000000e+00 0.00000000e+00 0.00000000e+00 0.00000000e+00 0.00000000e+00 0.00000000e+00 0.00000000e+00 0.00000000e+00 0.00000000e+00 0.00000000e+00 0.00000000e+00 0.00000000e+00 0.00000000e+00 0.00000000e+00 0.00000000e+00 0.00000000e+00 0.00000000e+00 0.00000000e+00 0.00000000e+00 0.00000000e+00 0.00000000e+00 0.00000000e+00 0.00000000e+00 0.00000000e+00 0.00000000e+00 0.00000000e+00 0.00000000e+00 0.00000000e+00 0.00000000e+00 0.00000000e+00 0.00000000e+00 0.00000000e+00 0.00000000e+00 0.00000000e+00 0.00000000e+00 0.00000000e+00 0.00000000e+00 0.00000000e+00 0.00000000e+00 0.00000000e+00 0.00000000e+00 0.00000000e+00 0.00000000e+00 0.00000000e+00 0.00000000e+00 0.00000000e+00 0.00000000e+00 0.00000000e+00 0.00000000e+00 0.00000000e+00 0.00000000e+00 0.00000000e+00 0.00000000e+00 0.00000000e+00 0.00000000e+00 0.00000000e+00 0.00000000e+00 0.00000000e+00 0.00000000e+00 0.00000000e+00 0.00000000e+00 0.00000000e+00 0.00000000e+00 0.00000000e+00 0.00000000e+00 0.00000000e+00 0.00000000e+00 0.00000000e+00 0.00000000e+00 0.00000000e+00 0.00000000e+00 0.00000000e+00 0.00000000e+00 0.00000000e+00 0.00000000e+00 0.00000000e+00 0.00000000e+00 0.00000000e+00 0.00000000e+00 0.00000000e+00 0.00000000e+00 0.00000000e+00 0.00000000e+00 0.00000000e+00 0.00000000e+00 0.00000000e+00 0.00000000e+00 0.00000000e+00 0.00000000e+00 0.00000000e+00 0.00000000e+00 0.00000000e+00 0.00000000e+00 0.00000000e+00 0.00000000e+00 0.00000000e+00 0.00000000e+00 0.00000000e+00 0.00000000e+00 0.00000000e+00 0.00000000e+00 0.00000000e+00 0.00000000e+00 0.00000000e+00 0.00000000e+00 0.00000000e+00 0.00000000e+00 0.00000000e+00 0.00000000e+00 0.00000000e+00 0.00000000e+00 0.00000000e+00 0.00000000e+00 0.00000000e+00 0.00000000e+00 0.00000000e+00 0.00000000e+00 0.00000000e+00 0.00000000e+00 0.00000000e+00 0.00000000e+00 0.00000000e+00 0.00000000e+00 0.00000000e+00 0.00000000e+00 0.00000000e+00 0.00000000e+00 0.00000000e+00 0.00000000e+00 0.00000000e+00 0.00000000e+00 0.00000000e+00 0.00000000e+00 0.00000000e+00 0.00000000e+00 0.00000000e+00 0.00000000e+00 0.00000000e+00 0.00000000e+00 0.00000000e+00 0.00000000e+00 0.00000000e+00 0.00000000e+00 0.00000000e+00 0.00000000e+00 0.00000000e+00 0.00000000e+00 0.00000000e+00 0.00000000e+00 0.00000000e+00 0.00000000e+00 0.00000000e+00 0.00000000e+00 0.00000000e+00 0.00000000e+00 0.00000000e+00 0.00000000e+00 0.00000000e+00 0.00000000e+00 0.00000000e+00 0.00000000e+00 0.00000000e+00 0.00000000e+00 0.00000000e+00 0.00000000e+00 0.00000000e+00 0.00000000e+00 0.00000000e+00 0.00000000e+00 0.00000000e+00 0.00000000e+00 0.00000000e+00 0.00000000e+00 0.00000000e+00 0.00000000e+00 0.00000000e+00 0.00000000e+00 0.00000000e+00 0.00000000e+00 0.00000000e+00 0.00000000e+00 0.00000000e+00 0.00000000e+00 0.00000000e+00 0.00000000e+00 0.00000000e+00 0.00000000e+00 0.00000000e+00 0.00000000e+00 0.00000000e+00 0.00000000e+00 0.00000000e+00 0.00000000e+00 0.00000000e+00 0.00000000e+00 0.00000000e+00 0.00000000e+00 0.00000000e+00 0.00000000e+00 0.00000000e+00 0.00000000e+00 0.00000000e+00 0.00000000e+00 
