# vtk DataFile Version 2.0
Curve_init.vtk, Created by Freefem++ 
ASCII
DATASET UNSTRUCTURED_GRID
POINTS 234 float
-0.09589978 0.00000000 2.13116455
-0.09942324 0.00000000 2.04921436
-0.09974366 0.00000000 1.96718884
-0.09686052 0.00000000 1.88521349
-0.09077824 0.00000000 1.80341327
-0.08150609 0.00000000 1.72191298
-0.06905822 0.00000000 1.64083695
-0.05345361 0.00000000 1.56030893
-0.03471608 0.00000000 1.48045170
0.00390498 -0.03333334 2.12491870
0.00054929 -0.03333334 2.04687071
0.00024413 -0.03333334 1.96875131
0.00298998 -0.03333334 1.89067948
0.00878263 -0.03333334 1.81277454
0.01761325 -0.03333334 1.73515522
0.02946836 -0.03333334 1.65793991
0.04432989 -0.03333334 1.58124661
0.06217515 -0.03333334 1.50519204
-0.06666764 -0.07071068 2.12933517
-0.07014196 -0.07071068 2.04852796
-0.07045791 -0.07071068 1.96764648
-0.06761499 -0.07071068 1.88681448
-0.06161754 -0.07071068 1.80615509
-0.05247471 -0.07071068 1.72579157
-0.04020045 -0.07071068 1.64584625
-0.02481349 -0.07071068 1.56644142
-0.00633730 -0.07071068 1.48769796
0.00390498 -0.10000000 2.12491870
0.00054929 -0.10000000 2.04687071
0.00024414 -0.10000000 1.96875131
0.00298998 -0.10000000 1.89067948
0.00878263 -0.10000000 1.81277454
0.01761325 -0.10000000 1.73515522
0.02946837 -0.10000000 1.65793991
0.04432989 -0.10000000 1.58124661
0.06217516 -0.10000000 1.50519204
-0.20781288 -0.21213204 2.13816833
-0.21152449 -0.21213204 2.05184221
-0.21186200 -0.21213204 1.96543682
-0.20882492 -0.21213204 1.87908435
-0.20241787 -0.21213204 1.79291630
-0.19265062 -0.21213204 1.70706415
-0.17953807 -0.21213204 1.62165904
-0.16310024 -0.21213204 1.53683102
-0.14336221 -0.21213204 1.45270979
-0.56067598 -0.56568545 2.16025090
-0.56498075 -0.56568545 2.06012774
-0.56537223 -0.56568545 1.95991278
-0.56184977 -0.56568545 1.85975897
-0.55441868 -0.56568545 1.75981915
-0.54309040 -0.56568545 1.66024578
-0.52788216 -0.56568545 1.56119072
-0.50881714 -0.56568545 1.46280527
-0.48592448 -0.56568545 1.36523926
0.00390498 0.03333333 2.12491870
0.00054929 0.03333333 2.04687071
0.00024413 0.03333333 1.96875131
0.00298998 0.03333333 1.89067948
0.00878263 0.03333333 1.81277454
0.01761325 0.03333333 1.73515522
0.02946836 0.03333333 1.65793991
0.04432989 0.03333333 1.58124661
0.06217515 0.03333333 1.50519204
-0.29550928 0.00000000 2.14365649
-0.29936832 0.00000000 2.05390143
-0.29971924 0.00000000 1.96406400
-0.29656154 0.00000000 1.87428141
-0.28989998 0.00000000 1.78469074
-0.27974477 0.00000000 1.69542849
-0.26611137 0.00000000 1.60663092
-0.24902062 0.00000000 1.51843357
-0.22849856 0.00000000 1.43097091
-0.79453301 0.00000000 2.17488599
-0.79923099 0.00000000 2.06561899
-0.79965824 0.00000000 1.95625174
-0.79581404 0.00000000 1.84695137
-0.78770435 0.00000000 1.73788440
-0.77534145 0.00000000 1.62921727
-0.75874430 0.00000000 1.52111590
-0.73793817 0.00000000 1.41374516
-0.71295476 0.00000000 1.30726886
0.00390498 0.10000000 2.12491870
0.00054929 0.10000000 2.04687071
0.00024414 0.10000000 1.96875131
0.00298998 0.10000000 1.89067948
0.00878263 0.10000000 1.81277454
0.01761325 0.10000000 1.73515522
0.02946837 0.10000000 1.65793991
0.04432989 0.10000000 1.58124661
0.06217516 0.10000000 1.50519204
-0.06666764 0.07071068 2.12933517
-0.07014196 0.07071068 2.04852796
-0.07045791 0.07071068 1.96764648
-0.06761499 0.07071068 1.88681448
-0.06161754 0.07071068 1.80615509
-0.05247471 0.07071068 1.72579157
-0.04020045 0.07071068 1.64584625
-0.02481349 0.07071068 1.56644142
-0.00633730 0.07071068 1.48769796
0.10370973 0.00000000 2.11867261
0.10052183 0.00000000 2.04452729
0.10023193 0.00000000 1.97031367
0.10284048 0.00000000 1.89614558
0.10834350 0.00000000 1.82213581
0.11673258 0.00000000 1.74839747
0.12799494 0.00000000 1.67504299
0.14211340 0.00000000 1.60218430
0.15906639 0.00000000 1.52993250
0.07447760 -0.07071068 2.12050200
0.07124055 -0.07071068 2.04521346
0.07094618 -0.07071068 1.96985602
0.07359494 -0.07071068 1.89454460
0.07918279 -0.07071068 1.81939399
0.08770120 -0.07071068 1.74451888
0.09913718 -0.07071068 1.67003357
0.11347327 -0.07071068 1.59605169
0.13068761 -0.07071068 1.52268612
0.00390498 -0.30000001 2.12491870
0.00054929 -0.30000001 2.04687071
0.00024414 -0.30000001 1.96875131
0.00298998 -0.30000001 1.89067948
0.00878263 -0.30000001 1.81277454
0.01761325 -0.30000001 1.73515522
0.02946837 -0.30000001 1.65793991
0.04432989 -0.30000001 1.58124661
0.06217516 -0.30000001 1.50519204
0.00390498 -0.80000001 2.12491870
0.00054929 -0.80000001 2.04687071
0.00024414 -0.80000001 1.96875131
0.00298998 -0.80000001 1.89067948
0.00878263 -0.80000001 1.81277454
0.01761325 -0.80000001 1.73515522
0.02946837 -0.80000001 1.65793991
0.04432989 -0.80000001 1.58124661
0.06217516 -0.80000001 1.50519204
0.07447760 0.07071068 2.12050200
0.07124055 0.07071068 2.04521346
0.07094618 0.07071068 1.96985602
0.07359494 0.07071068 1.89454460
0.07918279 0.07071068 1.81939399
0.08770120 0.07071068 1.74451888
0.09913718 0.07071068 1.67003357
0.11347327 0.07071068 1.59605169
0.13068761 0.07071068 1.52268612
-0.20781288 0.21213204 2.13816833
-0.21152449 0.21213204 2.05184221
-0.21186200 0.21213204 1.96543682
-0.20882492 0.21213204 1.87908435
-0.20241787 0.21213204 1.79291630
-0.19265062 0.21213204 1.70706415
-0.17953807 0.21213204 1.62165904
-0.16310024 0.21213204 1.53683102
-0.14336221 0.21213204 1.45270979
-0.56067598 0.56568545 2.16025090
-0.56498075 0.56568545 2.06012774
-0.56537223 0.56568545 1.95991278
-0.56184977 0.56568545 1.85975897
-0.55441868 0.56568545 1.75981915
-0.54309040 0.56568545 1.66024578
-0.52788216 0.56568545 1.56119072
-0.50881714 0.56568545 1.46280527
-0.48592448 0.56568545 1.36523926
0.00390498 0.30000001 2.12491870
0.00054929 0.30000001 2.04687071
0.00024414 0.30000001 1.96875131
0.00298998 0.30000001 1.89067948
0.00878263 0.30000001 1.81277454
0.01761325 0.30000001 1.73515522
0.02946837 0.30000001 1.65793991
0.04432989 0.30000001 1.58124661
0.06217516 0.30000001 1.50519204
0.30331925 0.00000000 2.10618091
0.30046690 0.00000000 2.03984022
0.30020753 0.00000000 1.97343862
0.30254149 0.00000000 1.90707755
0.30746523 0.00000000 1.84085834
0.31497127 0.00000000 1.77488196
0.32504812 0.00000000 1.70924902
0.33768040 0.00000000 1.64405954
0.35284889 0.00000000 1.57941329
0.21562283 -0.21213204 2.11166906
0.21262306 -0.21213204 2.04189920
0.21235028 -0.21213204 1.97206569
0.21480487 -0.21213204 1.90227473
0.21998312 -0.21213204 1.83263278
0.22787711 -0.21213204 1.76324630
0.23847480 -0.21213204 1.69422090
0.25176004 -0.21213204 1.62566209
0.26771253 -0.21213204 1.55767441
0.56848592 -0.56568545 2.08958626
0.56607938 -0.56568545 2.03361368
0.56586051 -0.56568545 1.97758973
0.56782973 -0.56568545 1.92159998
0.57198393 -0.56568545 1.86572993
0.57831687 -0.56568545 1.81006467
0.58681887 -0.56568545 1.75468910
0.59747696 -0.56568545 1.69968796
0.61027479 -0.56568545 1.64514494
0.21562283 0.21213204 2.11166906
0.21262306 0.21213204 2.04189920
0.21235028 0.21213204 1.97206569
0.21480487 0.21213204 1.90227473
0.21998312 0.21213204 1.83263278
0.22787711 0.21213204 1.76324630
0.23847480 0.21213204 1.69422090
0.25176004 0.21213204 1.62566209
0.26771253 0.21213204 1.55767441
0.00390498 0.80000001 2.12491870
0.00054929 0.80000001 2.04687071
0.00024414 0.80000001 1.96875131
0.00298998 0.80000001 1.89067948
0.00878263 0.80000001 1.81277454
0.01761325 0.80000001 1.73515522
0.02946837 0.80000001 1.65793991
0.04432989 0.80000001 1.58124661
0.06217516 0.80000001 1.50519204
0.80234301 0.00000000 2.07495117
0.80032957 0.00000000 2.02812243
0.80014646 0.00000000 1.98125076
0.80179399 0.00000000 1.93440771
0.80526960 0.00000000 1.88766468
0.81056798 0.00000000 1.84109318
0.81768101 0.00000000 1.79476392
0.82659793 0.00000000 1.74874794
0.83730507 0.00000000 1.70311522
0.56848592 0.56568545 2.08958626
0.56607938 0.56568545 2.03361368
0.56586051 0.56568545 1.97758973
0.56782973 0.56568545 1.92159998
0.57198393 0.56568545 1.86572993
0.57831687 0.56568545 1.81006467
0.58681887 0.56568545 1.75468910
0.59747696 0.56568545 1.69968796
0.61027479 0.56568545 1.64514494

CELLS 1476 6912
4 142 88 143 61
4 88 61 89 143
4 61 143 62 89
4 141 87 142 60
4 87 60 88 142
4 60 142 61 88
4 140 86 141 59
4 86 59 87 141
4 59 141 60 87
4 139 85 140 58
4 85 58 86 140
4 58 140 59 86
4 138 84 139 57
4 84 57 85 139
4 57 139 58 85
4 137 83 138 56
4 83 56 84 138
4 56 138 57 84
4 136 82 137 55
4 82 55 83 137
4 55 137 56 83
4 135 81 136 54
4 81 54 82 136
4 54 136 55 82
4 142 61 143 106
4 61 106 107 143
4 61 143 107 62
4 141 60 142 105
4 60 105 106 142
4 60 142 106 61
4 140 59 141 104
4 59 104 105 141
4 59 141 105 60
4 139 58 140 103
4 58 103 104 140
4 58 140 104 59
4 138 57 139 102
4 57 102 103 139
4 57 139 103 58
4 137 56 138 101
4 56 101 102 138
4 56 138 102 57
4 136 55 137 100
4 55 100 101 137
4 55 137 101 56
4 135 54 136 99
4 54 99 100 136
4 54 136 100 55
4 16 25 35 34
4 16 25 26 35
4 16 17 35 26
4 15 24 34 33
4 15 24 25 34
4 15 16 34 25
4 14 23 33 32
4 14 23 24 33
4 14 15 33 24
4 13 22 32 31
4 13 22 23 32
4 13 14 32 23
4 12 21 31 30
4 12 21 22 31
4 12 13 31 22
4 11 20 30 29
4 11 20 21 30
4 11 12 30 21
4 10 19 29 28
4 10 19 20 29
4 10 11 29 20
4 9 18 28 27
4 9 18 19 28
4 9 10 28 19
4 16 34 116 115
4 16 34 35 116
4 16 17 116 35
4 15 33 115 114
4 15 33 34 115
4 15 16 115 34
4 14 32 114 113
4 14 32 33 114
4 14 15 114 33
4 13 31 113 112
4 13 31 32 113
4 13 14 113 32
4 12 30 112 111
4 12 30 31 112
4 12 13 112 31
4 11 29 111 110
4 11 29 30 111
4 11 12 111 30
4 10 28 110 109
4 10 28 29 110
4 10 11 110 29
4 9 27 109 108
4 9 27 28 109
4 9 10 109 28
4 106 16 116 115
4 106 16 107 116
4 16 107 116 17
4 105 15 115 114
4 105 15 106 115
4 15 106 115 16
4 104 14 114 113
4 104 14 105 114
4 14 105 114 15
4 103 13 113 112
4 103 13 104 113
4 13 104 113 14
4 102 12 112 111
4 102 12 103 112
4 12 103 112 13
4 101 11 111 110
4 101 11 102 111
4 11 102 111 12
4 100 10 110 109
4 100 10 101 110
4 10 101 110 11
4 99 9 109 108
4 99 9 100 109
4 9 100 109 10
4 61 7 62 16
4 7 16 17 62
4 7 62 17 8
4 60 6 61 15
4 6 15 16 61
4 6 61 16 7
4 59 5 60 14
4 5 14 15 60
4 5 60 15 6
[...]
CELL_DATA 1476
Scalars  Label int1
LOOKUP_TABLE FreeFempp_table
0
0
0
0
0
0
0
0
0
0
0
0
0
0
0
0
0
0
0
0
0
0
0
0
0
0
0
0
0
0
0
0
0
0
0
0
0
0
0
0
0
0
0
0
0
0
0
0
0
0
0
0
0
0
0
0
0
0
0
0
0
0
0
0
0
0
0
0
0
0
0
0
0
0
0
0
0
0
0
0
0
0
0
0
0
0
0
0
0
0
0
0
0
0
0
0
0
0
0
0
0
0
0
0
0
0
0
0
0
0
0
0
0
0
0
0
0
0
0
0
0
0
0
0
0
0
0
0
0
0
0
0
0
0
0
0
0
0
0
0
0
0
0
0
0
0
0
0
0
0
0
0
0
0
0
0
0
0
0
0
0
0
0
0
0
0
0
0
0
0
0
0
0
0
0
0
0
0
0
0
0
0
0
0
0
0
0
0
0
0
0
0
0
0
0
0
0
0
0
0
0
0
0
0
0
0
0
0
0
0
0
0
0
0
0
0
0
0
0
0
0
0
0
0
0
0
0
0
0
0
0
0
0
0
0
0
0
0
0
0
1
1
1
1
1
1
1
1
1
1
1
1
1
1
1
1
1
1
1
1
1
1
1
1
1
1
1
1
1
1
1
1
1
1
1
1
1
1
1
1
1
1
1
1
1
1
1
1
1
1
1
1
1
1
1
1
1
1
1
1
1
1
1
1
1
1
1
1
1
1
1
1
1
1
1
1
1
1
1
1
1
1
1
1
1
1
1
1
1
1
1
1
1
1
1
1
1
1
1
1
1
1
1
1
1
1
1
1
1
1
1
1
1
1
1
1
1
1
1
1
1
1
1
1
1
1
1
1
1
1
1
1
1
1
1
1
1
1
1
1
1
1
1
1
1
1
1
1
1
1
1
1
1
1
1
1
1
1
1
1
1
1
1
1
1
1
1
1
1
1
1
1
1
1
1
1
1
1
1
1
1
1
1
1
1
1
1
1
1
1
1
1
1
1
1
1
1
1
1
1
1
1
1
1
1
1
1
1
1
1
1
1
1
1
1
1
1
1
1
1
1
1
1
1
1
1
1
1
1
1
1
1
1
1
1
1
1
1
1
1
1
1
1
1
1
1
1
1
1
1
1
1
1
1
1
1
1
1
1
1
1
1
1
1
1
1
1
1
1
1
1
1
1
1
1
1
1
1
1
1
1
1
1
1
1
1
1
1
1
1
1
1
1
1
1
1
1
1
1
1
1
1
1
1
1
1
1
1
1
1
1
1
1
1
1
1
1
1
1
1
1
1
1
1
1
1
1
1
1
1
1
1
1
1
1
1
1
1
1
1
1
1
1
1
1
1
1
1
1
1
1
1
1
1
1
1
1
1
1
1
1
1
1
1
1
1
1
1
1
1
1
1
1
1
1
1
1
1
1
1
1
1
1
1
2
2
2
2
2
2
2
2
2
2
2
2
2
2
2
2
2
2
2
2
2
2
2
2
2
2
2
2
2
2
2
2
2
2
2
2
2
2
2
2
2
2
2
2
2
2
2
2
2
2
2
2
2
2
2
2
2
2
2
2
2
2
2
2
2
2
2
2
2
2
2
2
2
2
2
2
2
2
2
2
2
2
2
2
2
2
2
2
2
2
2
2
2
2
2
2
2
2
2
2
2
2
2
2
2
2
2
2
2
2
2
2
2
2
2
2
2
2
2
2
2
2
2
2
2
2
2
2
2
2
2
2
2
2
2
2
2
2
2
2
2
2
2
2
2
2
2
2
2
2
2
2
2
2
2
2
2
2
2
2
2
2
2
2
2
2
2
2
2
2
2
2
2
2
2
2
2
2
2
2
2
2
2
2
2
2
2
2
2
2
2
2
2
2
2
2
2
2
2
2
2
2
2
2
2
2
2
2
2
2
2
2
2
2
2
2
2
2
2
2
2
2
2
2
2
2
2
2
2
2
2
2
2
2
2
2
2
2
2
2
2
2
2
2
2
2
2
2
2
2
2
2
2
2
2
2
2
2
2
2
2
2
2
2
2
2
2
2
2
2
2
2
2
2
2
2
2
2
2
2
2
2
2
2
2
2
2
2
2
2
2
2
2
2
2
2
2
2
2
2
2
2
2
2
2
2
2
2
2
2
2
2
2
2
2
2
2
2
2
2
2
2
2
2
2
2
2
2
2
2
2
2
2
2
2
2
2
2
2
2
2
2
2
2
2
2
2
2
2
2
2
2
2
2
2
2
2
2
2
2
2
2
2
2
2
2
2
2
2
2
2
2
2
2
2
2
2
2
2
2
2
2
2
2
1
1
1
1
1
1
1
1
1
1
1
1
1
1
1
1
1
1
1
1
1
1
1
1
1
1
2
2
2
2
2
2
2
2
2
2
2
2
2
2
2
2
1
1
1
1
1
1
1
1
1
1
1
1
1
1
1
1
1
1
1
1
1
1
1
1
1
1
2
2
2
2
2
2
2
2
2
2
2
2
2
2
2
2
4
4
4
4
4
4
4
4
4
4
4
4
4
4
4
4
4
4
4
4
4
4
4
4
4
4
4
4
4
4
4
4
4
4
4
4
4
4
4
4
4
4
4
4
4
4
4
4
4
4
4
4
4
4
4
4
4
4
4
4
4
4
4
4
4
4
4
4
4
4
4
4
4
4
4
4
4
4
4
4
4
4
4
4
4
4
4
4
4
4
4
4
4
4
4
4
4
4
4
4
4
4
4
4
4
4
4
4
4
4
4
4
4
4
4
4
4
4
4
4
4
4
4
4
4
4
4
4
3
3
3
3
3
3
3
3
3
3
3
3
3
3
3
3
3
3
3
3
3
3
3
3
3
3
3
3
3
3
3
3
3
3
3
3
3
3
3
3
3
3
3
3
3
3
3
3
3
3
3
3
3
3
3
3
3
3
3
3
3
3
3
3
3
3
3
3
3
3
3
3
3
3
3
3
3
3
3
3
3
3
3
3
3
3
3
3
3
3
3
3
3
3
3
3
3
3
3
3
3
3
3
3
3
3
3
3
3
3
3
3
3
3
3
3
3
3
3
3
3
3
3
3
3
3
3
3
2
2
2
2
2
2
2
2
2
2
2
2
2
2
2
2
2
2
2
2
2
2
2
2
2
2
2
2
2
2
2
2
2
2
2
2
2
2
2
2
2
2
2
2
2
2
2
2
2
2
2
2
2
2
2
2
2
2
2
2
2
2
2
2
2
2
2
2
2
2
2
2
2
2
2
2
2
2
2
2
2
2
2
2
2
2
2
2
2
2
2
2
2
2
2
2
2
2
2
2
2
2
2
2
2
2
2
2
2
2
2
2
2
2
2
2
2
2
2
2
2
2
2
2
2
2
2
2

LOOKUP_TABLE FreeFempp_table 5
1.00000000 0.00000000 0.00000000 1.00000000
1.00000000 1.00000000 0.00000000 1.00000000
1.00000000 0.00000000 1.00000000 1.00000000
0.00000000 1.00000000 0.00000000 1.00000000
0.00000000 1.00000000 1.00000000 1.00000000

FIELD FieldData 2
init 3 1476 float
-8.23101521e-01 -8.91800284e-01 2.84722775e-01 -8.83137226e-01 -8.42936397e-01 2.90994495e-01 -8.15451920e-01 -9.33629692e-01 2.96593755e-01 -8.64235997e-01 -8.24019253e-01 2.66781539e-01 -9.22124088e-01 -7.52093613e-01 2.72342503e-01 -8.75037014e-01 -8.61039639e-01 2.77573436e-01 -8.95834565e-01 -7.38221645e-01 2.50011235e-01 -9.48619962e-01 -6.42562628e-01 2.54927784e-01 -9.27352726e-01 -7.54112124e-01 2.59788483e-01 -9.11315799e-01 -6.47478759e-01 2.34414354e-01 -9.57619309e-01 -5.30183733e-01 2.38754898e-01 -9.57962334e-01 -6.22720361e-01 2.43253216e-01 -9.14039195e-01 -5.72531879e-01 2.19963446e-01 -9.54655826e-01 -4.37564939e-01 2.23795936e-01 -9.64097798e-01 -4.96037930e-01 2.27946877e-01 -9.12459195e-01 -5.27704358e-01 2.06609026e-01 -9.50120687e-01 -3.79738986e-01 2.09999084e-01 -9.58243847e-01 -4.05031294e-01 2.13822633e-01 -9.10965085e-01 -5.18190563e-01 1.94286183e-01 -9.49649274e-01 -3.61998379e-01 1.97295845e-01 -9.54130828e-01 -3.65997732e-01 2.00815096e-01 -9.07354534e-01 -5.44482172e-01 1.82919741e-01 -9.51488078e-01 -3.84995997e-01 1.85606748e-01 -9.55061138e-01 -3.82811010e-01 1.88846648e-01 -6.40021384e-01 -9.68544185e-01 2.82845169e-01 -5.26634037e-01 -9.64951575e-01 2.86596358e-01 -6.42028868e-01 -9.78900969e-01 2.94073224e-01 -6.75543189e-01 -9.33588624e-01 2.65440822e-01 -5.50351202e-01 -9.38406825e-01 2.69124180e-01 -6.91956937e-01 -9.37783539e-01 2.75695831e-01 -7.04717100e-01 -8.78299296e-01 2.49110162e-01 -5.68809628e-01 -8.92209589e-01 2.52685994e-01 -7.38659918e-01 -8.63681436e-01 2.58447796e-01 -7.19363332e-01 -8.12749147e-01 2.33865470e-01 -5.74549258e-01 -8.35531771e-01 2.37304911e-01 -7.66844809e-01 -7.62798011e-01 2.42352128e-01 -7.21295178e-01 -7.55919218e-01 2.19689488e-01 -5.69959283e-01 -7.86222696e-01 2.22973093e-01 -7.72145271e-01 -6.61308348e-01 2.27397993e-01 -7.17959762e-01 -7.21393585e-01 2.06542715e-01 -5.62877238e-01 -7.56815553e-01 2.09658816e-01 -7.65499830e-01 -5.88418603e-01 2.13548675e-01 -7.13411868e-01 -7.14172840e-01 1.94369525e-01 -5.57596624e-01 -7.51669884e-01 1.97312862e-01 -7.59631455e-01 -5.59686959e-01 2.00748786e-01 -7.05786169e-01 -7.34782398e-01 1.83103412e-01 -5.52366495e-01 -7.71278441e-01 1.85873777e-01 -7.57507861e-01 -5.78793287e-01 1.88930005e-01 7.10769653e-01 -1.04725152e-01 2.89269388e-01 7.69615769e-01 2.88842563e-02 2.96105027e-01 5.62332630e-01 -3.03056985e-01 3.00300330e-01 8.00662816e-01 2.48006769e-02 2.70069689e-01 8.41739178e-01 1.80453196e-01 2.76079148e-01 6.86576903e-01 -1.55497894e-01 2.80317724e-01 8.72710943e-01 1.47744119e-01 2.52268136e-01 8.89783084e-01 3.09621185e-01 2.57535994e-01 7.97420979e-01 -2.21874984e-03 2.61736333e-01 9.19291794e-01 2.52378196e-01 2.35843524e-01 9.15088296e-01 4.13066536e-01 2.40454584e-01 8.83015931e-01 1.46408796e-01 2.44554654e-01 9.40762162e-01 3.23693573e-01 2.20744252e-01 9.20824528e-01 4.82160449e-01 2.24780768e-01 9.32349741e-01 2.66186476e-01 2.28734985e-01 9.46836352e-01 3.55299324e-01 2.06897303e-01 9.16694641e-01 5.13898432e-01 2.10437179e-01 9.50780869e-01 3.36994201e-01 2.14213595e-01 9.45943594e-01 3.46956849e-01 1.94215760e-01 9.10615742e-01 5.09596527e-01 1.97331399e-01 9.52111721e-01 3.52543086e-01 2.00909153e-01 9.39624786e-01 2.98445672e-01 1.82604387e-01 9.04063582e-01 4.69603211e-01 1.85362309e-01 9.43469644e-01 3.12738329e-01 1.88729286e-01 4.04904395e-01 -5.33788621e-01 2.84722775e-01 5.02724111e-01 -4.29909915e-01 2.90994495e-01 3.57970238e-01 -5.77659905e-01 2.96593755e-01 5.15387893e-01 -4.48984921e-01 2.66781539e-01 6.21934235e-01 -3.23523939e-01 2.72342503e-01 4.98324901e-01 -4.73448157e-01 2.77573436e-01 6.15347981e-01 -3.54480773e-01 2.50011235e-01 7.25898206e-01 -2.08903760e-01 2.54927784e-01 6.37868762e-01 -3.42245311e-01 2.59788483e-01 6.90903306e-01 -2.66708612e-01 2.34414354e-01 8.01364005e-01 -1.04298398e-01 2.38754898e-01 7.53652275e-01 -2.01816380e-01 2.43253216e-01 7.37737298e-01 -2.04514906e-01 2.19963446e-01 8.46002519e-01 -2.92055197e-02 2.23795936e-01 8.28992188e-01 -8.31735432e-02 2.27946877e-01 7.61864245e-01 -1.77438423e-01 2.06609026e-01 8.68135631e-01 7.08747609e-03 2.09999084e-01 8.66752863e-01 -1.09940134e-02 2.13822633e-01 7.69224882e-01 -1.87687933e-01 1.94286183e-01 8.75447750e-01 2.74973200e-03 1.97295845e-01 8.79703104e-01 5.78758679e-03 2.00815096e-01 7.60248005e-01 -2.35590264e-01 1.82919741e-01 8.69138718e-01 -4.26938049e-02 1.85606748e-01 8.74628484e-01 -3.39737199e-02 1.88846648e-01 1.41629890e-01 -7.39575744e-01 2.82845169e-01 -2.10366197e-04 -8.09217453e-01 2.86596358e-01 1.18310250e-01 -7.51180351e-01 2.94073224e-01 2.34729111e-01 -6.85116649e-01 2.65440822e-01 7.80009925e-02 -7.65442789e-01 2.69124180e-01 2.35050410e-01 -6.79235280e-01 2.75695831e-01 3.24044287e-01 -6.16080165e-01 2.49110162e-01 1.53935686e-01 -7.06634879e-01 2.52685994e-01 3.57209980e-01 -5.78377068e-01 2.58447796e-01 3.94661874e-01 -5.47027111e-01 2.33865470e-01 2.13818833e-01 -6.46216273e-01 2.37304911e-01 4.62348521e-01 -4.63415772e-01 2.42352128e-01 4.40560907e-01 -4.96068329e-01 2.19689488e-01 2.52584666e-01 -6.01077437e-01 2.22973093e-01 5.32750726e-01 -3.63492042e-01 2.27397993e-01 4.66217160e-01 -4.72655535e-01 2.06542715e-01 2.75312185e-01 -5.79683065e-01 2.09658816e-01 5.69576502e-01 -3.02547425e-01 2.13548675e-01 4.76637781e-01 -4.79059875e-01 1.94369525e-01 2.87213564e-01 -5.83839297e-01 1.97312862e-01 5.84056020e-01 -2.89429516e-01 2.00748786e-01 4.72056359e-01 -5.15580416e-01 1.83103412e-01 2.88360029e-01 -6.14055872e-01 1.85873777e-01 5.82041383e-01 -3.25345665e-01 1.88930005e-01 -2.25330457e-01 -4.02752280e-01 2.91163623e-01 3.07272617e-02 -3.43532532e-01 2.96137482e-01 1.65417287e-02 6.16640970e-02 3.03167850e-01 -2.27016509e-01 -3.23611021e-01 2.71702617e-01 9.60473195e-02 -2.64613777e-01 2.76348323e-01 2.61501651e-02 9.90293697e-02 2.82373488e-01 -2.26168469e-01 -2.01015115e-01 2.53680319e-01 1.65802851e-01 -1.44581974e-01 2.57993400e-01 4.18559983e-02 1.64482519e-01 2.63135880e-01 -2.20867351e-01 -5.26583493e-02 2.37071306e-01 2.26485029e-01 5.78988483e-03 2.41056949e-01 6.27880543e-02 2.59710312e-01 2.45434642e-01 -2.11386845e-01 8.09235126e-02 2.21819580e-01 2.68266290e-01 1.50368810e-01 2.25490123e-01 8.30109492e-02 3.64214718e-01 2.29213700e-01 -2.03239739e-01 1.64790526e-01 2.07848027e-01 2.90140539e-01 2.49915004e-01 2.11220831e-01 9.54631716e-02 4.45902675e-01 2.14392200e-01 -2.03786463e-01 1.83869541e-01 1.95065856e-01 2.95481294e-01 2.85478592e-01 1.98161632e-01 9.76935253e-02 4.86574888e-01 2.00873345e-01 -2.16040537e-01 1.35195807e-01 1.83374390e-01 2.85589755e-01 2.53191411e-01 1.86215818e-01 9.07273665e-02 4.82374161e-01 1.88551128e-01 -9.07052338e-01 -4.45911467e-01 2.91173637e-01 -9.44027960e-01 -6.52391076e-01 2.94701070e-01 -8.76342654e-01 -7.43084431e-01 3.00300330e-01 -8.74793828e-01 -2.69568950e-01 2.71473646e-01 -9.45184171e-01 -4.96750087e-01 2.75086761e-01 -8.98097098e-01 -6.05696142e-01 2.80317724e-01 -8.43314528e-01 -1.14393979e-01 2.53260523e-01 -9.36117709e-01 -3.43455821e-01 2.56875634e-01 -9.14850473e-01 -4.55005318e-01 2.61736333e-01 -8.12697291e-01 1.53373964e-02 2.36503899e-01 -9.17601466e-01 -2.05462858e-01 2.40056336e-01 -9.17944431e-01 -2.97999531e-01 2.44554654e-01 -7.86653757e-01 1.09760843e-01 2.21142516e-01 -8.96055102e-01 -9.94696543e-02 2.24584028e-01 -9.05497074e-01 -1.57942668e-01 2.28734985e-01 -7.72509873e-01 1.62867665e-01 2.07094058e-01 -8.81335974e-01 -3.55415568e-02 2.10390061e-01 -8.89459074e-01 -6.08338490e-02 2.14213595e-01 -7.73758709e-01 1.74538001e-01 1.94262877e-01 -8.78484726e-01 -1.56237930e-02 1.97389901e-01 -8.82966340e-01 -1.96231492e-02 2.00909153e-01 -7.87926793e-01 1.46143049e-01 1.82545885e-01 -8.85446250e-01 -3.86419930e-02 1.85489386e-01 -8.89019251e-01 -3.64570133e-02 1.88729286e-01 6.75525844e-01 3.41754675e-01 2.93178529e-01 4.68242675e-01 9.81343724e-03 2.97373831e-01 4.54057157e-01 4.15010065e-01 3.04404229e-01 7.14550495e-01 4.62498277e-01 2.72888273e-01 5.59388220e-01 1.26547173e-01 2.77126819e-01 4.89491045e-01 4.90190327e-01 2.83152014e-01 7.36391068e-01 5.62206328e-01 2.54200220e-01 6.44028962e-01 2.50366360e-01 2.58400559e-01 5.20082116e-01 5.59430838e-01 2.63543010e-01 7.42890835e-01 6.40720665e-01 2.37069622e-01 7.10818470e-01 3.74062985e-01 2.41169691e-01 5.47121465e-01 6.27983391e-01 2.45547384e-01 7.36165881e-01 6.91448748e-01 2.21421480e-01 7.47691035e-01 4.75474775e-01 2.25375697e-01 5.62435687e-01 6.89320683e-01 2.29099274e-01 7.24182308e-01 7.12238550e-01 2.07160741e-01 7.58268535e-01 5.35334289e-01 2.10937157e-01 5.63591123e-01 7.31321990e-01 2.14108527e-01 7.13279366e-01 7.04560757e-01 1.94180250e-01 7.54775345e-01 5.47507286e-01 1.97758004e-01 5.56987584e-01 7.48603642e-01 2.00469732e-01 7.03955531e-01 6.68718815e-01 1.82366833e-01 7.43361533e-01 5.11853933e-01 1.85733825e-01 5.48499167e-01 7.41036654e-01 1.88069135e-01 -5.82690597e-01 -3.38781327e-02 2.93178529e-01 -5.57349503e-01 -3.01964849e-01 2.97373831e-01 -2.72879869e-01 1.88815996e-01 3.04404229e-01 -5.54083824e-01 1.10499784e-01 2.72888273e-01 -5.78931153e-01 -1.94607824e-01 2.77126819e-01 -2.75703788e-01 2.68765032e-01 2.83152014e-01 -5.28766096e-01 2.35563114e-01 2.54200220e-01 -5.98890901e-01 -7.58578032e-02 2.58400559e-01 -2.82012522e-01 3.43273461e-01 2.63543010e-01 -5.05236983e-01 3.40229601e-01 2.37069622e-01 -6.07720673e-01 5.11764139e-02 2.41169691e-01 -2.89065570e-01 4.17767912e-01 2.45547384e-01 -4.85690296e-01 4.16542351e-01 2.21421480e-01 -6.01961792e-01 1.66393727e-01 2.25375697e-01 -2.90330291e-01 4.88978297e-01 2.29099274e-01 -4.76481944e-01 4.59328771e-01 2.07160741e-01 -5.92051029e-01 2.45672300e-01 2.10937157e-01 -2.87851125e-01 5.44086874e-01 2.14108527e-01 -4.80813622e-01 4.68708843e-01 1.94180250e-01 -5.90156198e-01 2.76868939e-01 1.97758004e-01 -2.89121240e-01 5.74190319e-01 2.00469732e-01 -4.96595532e-01 4.46014822e-01 1.82366833e-01 -5.98987043e-01 2.58048266e-01 1.85733825e-01 -2.98362315e-01 5.77171206e-01 1.88069135e-01 -2.55505711e-01 -8.75193655e-01 2.84092724e-01 -3.70900542e-01 -8.89143109e-01 2.91569591e-01 -1.14842810e-01 -8.29923391e-01 2.96543419e-01 -2.21496582e-01 -8.12066495e-01 2.66444236e-01 -3.63102317e-01 -8.11443210e-01 2.73015887e-01 -4.00384925e-02 -7.52445996e-01 2.77661592e-01 -1.83584988e-01 -7.18260050e-01 2.49913603e-01 -3.53435248e-01 -6.89731956e-01 2.55675405e-01 3.85360904e-02 -6.33298814e-01 2.59988487e-01 -1.47678092e-01 -6.14645660e-01 2.34507978e-01 -3.39973629e-01 -5.41911900e-01 2.39555195e-01 1.07378751e-01 -4.83463675e-01 2.43540838e-01 -1.20783627e-01 -5.33597648e-01 2.20205083e-01 -3.22969615e-01 -4.08683300e-01 2.24629983e-01 1.56683519e-01 -3.39237988e-01 2.28300512e-01 -1.05281197e-01 -4.93499905e-01 2.06960663e-01 -3.07903767e-01 -3.25102985e-01 2.10850522e-01 1.85476512e-01 -2.39978492e-01 2.14223325e-01 -1.00062333e-01 -4.98294681e-01 1.94714770e-01 -3.02097172e-01 -3.06311786e-01 1.98150679e-01 1.97170585e-01 -2.04702735e-01 2.01246455e-01 -1.03378169e-01 -5.47776878e-01 1.83396980e-01 -3.08519542e-01 -3.55291724e-01 1.86453208e-01 1.93110764e-01 -2.37296104e-01 1.89294636e-01 -6.01180136e-01 -8.36081624e-01 2.57099122e-01 -4.86324012e-01 -8.38269889e-01 2.58800358e-01 -6.04430258e-01 -8.82384956e-01 2.71902978e-01 -6.10680938e-01 -8.28213990e-01 2.43214175e-01 -4.90629137e-01 -8.36843073e-01 2.45196432e-01 -6.19345903e-01 -8.73746037e-01 2.56774664e-01 -6.18160486e-01 -8.17685068e-01 2.29943067e-01 -4.93653625e-01 -8.32320094e-01 2.32136309e-01 -6.32743835e-01 -8.60791802e-01 2.42351189e-01 -6.22737348e-01 -8.06032598e-01 2.17324048e-01 -4.94619668e-01 -8.25998783e-01 2.19666049e-01 -6.43114269e-01 -8.45414162e-01 2.28677392e-01 -6.23687625e-01 -7.94964969e-01 2.05373153e-01 -4.92889017e-01 -8.19382727e-01 2.07809776e-01 -6.49104357e-01 -8.30093682e-01 2.15771675e-01 -6.20487511e-01 -7.85999775e-01 1.94088250e-01 -4.88007188e-01 -8.13836813e-01 1.96573362e-01 -6.49684370e-01 -8.17394018e-01 2.03630999e-01 -6.12780809e-01 -7.80094683e-01 1.83452919e-01 -4.79672015e-01 -8.10231090e-01 1.85947984e-01 -6.44158185e-01 -8.09291959e-01 1.92235544e-01 -6.00353062e-01 -7.77424455e-01 1.73439875e-01 -4.67707366e-01 -8.08723390e-01 1.75913453e-01 -6.32105350e-01 -8.06628883e-01 1.81552842e-01 -7.57548749e-01 -7.29992986e-01 2.61902064e-01 -7.97863960e-01 -6.45406306e-01 2.69970208e-01 -7.59601593e-01 -7.95610070e-01 2.78269917e-01 -7.68077433e-01 -7.05089033e-01 2.46689096e-01 -8.04394305e-01 -6.07629478e-01 2.53474295e-01 -7.75714576e-01 -7.67657399e-01 2.61577606e-01 -7.76648641e-01 -6.80171967e-01 2.32311055e-01 -8.09538305e-01 -5.71681976e-01 2.37979218e-01 -7.90140390e-01 -7.37666845e-01 2.45826110e-01 -7.82559514e-01 -6.56993866e-01 2.18787864e-01 -8.12929928e-01 -5.39446950e-01 2.23497853e-01 -8.01602423e-01 -7.07901001e-01 2.31045380e-01 -7.85199642e-01 -6.37365580e-01 2.06115484e-01 -8.14223170e-01 -5.12744606e-01 2.10015923e-01 -8.08926523e-01 -6.81054950e-01 2.17235491e-01 -7.84090340e-01 -6.22837305e-01 1.94271192e-01 -8.13122034e-01 -4.93075013e-01 1.97498634e-01 -8.11196387e-01 -6.59794629e-01 2.04373330e-01 -7.78851688e-01 -6.14363015e-01 1.83218300e-01 -8.09345722e-01 -4.81337041e-01 1.85896292e-01 -8.07761014e-01 -6.46129549e-01 1.92418486e-01 -7.69175529e-01 -6.12095892e-01 1.72910154e-01 -8.02600741e-01 -4.77663249e-01 1.75149098e-01 -7.98176169e-01 -6.40897274e-01 1.81318209e-01 -8.73917878e-01 -6.11145020e-01 2.75206715e-01 -8.35655510e-01 -7.61348784e-01 2.83506423e-01 -8.95691216e-01 -7.12484837e-01 2.89778143e-01 -8.79242599e-01 -5.44548273e-01 2.57527828e-01 -8.50562871e-01 -7.04576194e-01 2.65631139e-01 -9.08450961e-01 -6.32650495e-01 2.71192104e-01 -8.80795538e-01 -4.82116044e-01 2.41054088e-01 -8.61397624e-01 -6.48100913e-01 2.48900980e-01 -9.14182961e-01 -5.52441895e-01 2.53817499e-01 -8.79913568e-01 -4.28541094e-01 2.25777984e-01 -8.68586004e-01 -5.96995115e-01 2.33325496e-01 -9.14889455e-01 -4.79700118e-01 2.37666041e-01 -8.77881408e-01 -3.87208283e-01 2.11663827e-01 -8.72584760e-01 -5.55518627e-01 2.18883395e-01 -9.13201392e-01 -4.20551687e-01 2.22715884e-01 -8.75476897e-01 -3.60175014e-01 1.98655576e-01 -8.73551190e-01 -5.26894629e-01 2.05530286e-01 -9.11212742e-01 -3.78929257e-01 2.08920345e-01 -8.72803807e-01 -3.48385096e-01 1.86683223e-01 -8.71219099e-01 -5.13177574e-01 1.93205416e-01 -9.09903288e-01 -3.56985390e-01 1.96215078e-01 -8.69267762e-01 -3.51835251e-01 1.75667971e-01 -8.64843190e-01 -5.15069246e-01 1.81837082e-01 -9.08976793e-01 -3.55583072e-01 1.84524089e-01 -8.96977961e-01 -3.55801523e-01 2.77950972e-01 -9.19606268e-01 -3.15459937e-01 2.89957255e-01 -9.56581891e-01 -5.21939576e-01 2.93484718e-01 -8.66740346e-01 -2.45441452e-01 2.59475678e-01 -8.61120701e-01 -1.50125861e-01 2.70323247e-01 -9.31511045e-01 -3.77306968e-01 2.73936391e-01 -8.40777636e-01 -1.57395169e-01 2.42355525e-01 -8.08877528e-01 -2.42732279e-02 2.52150267e-01 -9.01680708e-01 -2.53335059e-01 2.55765349e-01 -8.21312845e-01 -9.04458091e-02 2.26566076e-01 -7.69967437e-01 6.58209994e-02 2.35415041e-01 -8.74871612e-01 -1.54979259e-01 2.38967478e-01 -8.09096694e-01 -4.30108644e-02 2.12054804e-01 -7.45199323e-01 1.26774088e-01 2.20062464e-01 -8.54600668e-01 -8.24564025e-02 2.23503992e-01 -8.04312348e-01 -1.38004189e-02 1.98749632e-01 -7.33601928e-01 1.63677409e-01 2.06015304e-01 -8.42427969e-01 -3.47318240e-02 2.09311306e-01 -8.06761980e-01 -2.03110324e-03 1.86565876e-01 -7.34012723e-01 1.79551005e-01 1.93182096e-01 -8.38738739e-01 -1.06107984e-02 1.96309119e-01 -8.15881848e-01 -7.56401336e-03 1.75411478e-01 -7.45415509e-01 1.75555974e-01 1.81463242e-01 -8.42934906e-01 -9.22907889e-03 1.84406742e-01 -7.75490999e-01 -1.14661038e-01 2.76768863e-01 -6.98713839e-01 4.14839387e-02 2.86794007e-01 -8.08021605e-01 -9.12113860e-02 2.94811755e-01 -7.36557245e-01 -2.26301625e-02 2.57440716e-01 -6.51794851e-01 1.36432528e-01 2.65702218e-01 -7.38089740e-01 5.99950477e-02 2.73746639e-01 -7.07231164e-01 4.56893928e-02 2.39684701e-01 -6.17082298e-01 2.05461070e-01 2.46452063e-01 -6.80105507e-01 1.69347659e-01 2.54390746e-01 -6.87820733e-01 9.53406170e-02 2.23442897e-01 -5.94320893e-01 2.54820555e-01 2.28960663e-01 -6.39184415e-01 2.44621828e-01 2.36694902e-01 -6.77299917e-01 1.30270079e-01 2.08632484e-01 -5.82051098e-01 2.89324939e-01 2.13118702e-01 -6.14279032e-01 2.95005649e-01 2.20577538e-01 -6.74698055e-01 1.52912676e-01 1.95154920e-01 -5.79020381e-01 3.11995834e-01 1.98801532e-01 -6.03185236e-01 3.26913297e-01 2.05936104e-01 -6.79411829e-01 1.64475635e-01 1.82902843e-01 -5.84494233e-01 3.24406654e-01 1.85877249e-01 -6.04263484e-01 3.43942821e-01 1.92655906e-01 -6.91209257e-01 1.65131673e-01 1.71765253e-01 -5.98253727e-01 3.26917857e-01 1.74212486e-01 -6.16766334e-01 3.47429186e-01 1.80616617e-01 -4.0871