# vtk DataFile Version 2.0
Curve0_init.vtk, Created by Freefem++ 
ASCII
DATASET UNSTRUCTURED_GRID
POINTS 60 float
-0.09589978 0.00000000 2.13116455
-0.09974366 0.00000000 1.96718884
-0.09077824 0.00000000 1.80341327
-0.06905822 0.00000000 1.64083695
-0.03471608 0.00000000 1.48045170
0.00390498 -0.10000000 2.12491870
0.00024414 -0.10000000 1.96875131
0.00878263 -0.10000000 1.81277454
0.02946837 -0.10000000 1.65793991
0.06217516 -0.10000000 1.50519204
0.10370973 0.00000000 2.11867261
0.10023193 0.00000000 1.97031367
0.10834350 0.00000000 1.82213581
0.12799494 0.00000000 1.67504299
0.15906639 0.00000000 1.52993250
0.00390498 -0.40000001 2.12491870
0.00024414 -0.40000001 1.96875131
0.00878263 -0.40000001 1.81277454
0.02946837 -0.40000001 1.65793991
0.06217516 -0.40000001 1.50519204
0.00390498 0.10000000 2.12491870
0.00024414 0.10000000 1.96875131
0.00878263 0.10000000 1.81277454
0.02946837 0.10000000 1.65793991
0.06217516 0.10000000 1.50519204
0.00390498 0.40000001 2.12491870
0.00024414 0.40000001 1.96875131
0.00878263 0.40000001 1.81277454
0.02946837 0.40000001 1.65793991
0.06217516 0.40000001 1.50519204
-0.39531404 0.00000000 2.14990234
-0.39970705 0.00000000 1.96250153
-0.38946086 0.00000000 1.77532947
-0.36463797 0.00000000 1.58952796
-0.32538980 0.00000000 1.40623045
-0.99414253 0.00000000 2.18737793
-0.99963379 0.00000000 1.95312691
-0.98682606 0.00000000 1.71916175
-0.95579743 0.00000000 1.48690999
-0.90673727 0.00000000 1.25778818
0.00390498 -1.00000000 2.12491870
0.00024414 -1.00000000 1.96875131
0.00878263 -1.00000000 1.81277454
0.02946837 -1.00000000 1.65793991
0.06217516 -1.00000000 1.50519204
0.40312397 0.00000000 2.09993482
0.40019530 0.00000000 1.97500098
0.40702611 0.00000000 1.85021961
0.42357469 0.00000000 1.72635198
0.44974011 0.00000000 1.60415363
0.00390498 1.00000000 2.12491870
0.00024414 1.00000000 1.96875131
0.00878263 1.00000000 1.81277454
0.02946837 1.00000000 1.65793991
0.06217516 1.00000000 1.50519204
1.00195253 0.00000000 2.06245923
1.00012207 0.00000000 1.98437560
1.00439131 0.00000000 1.90638721
1.01473415 0.00000000 1.82896996
1.03108764 0.00000000 1.75259602

CELLS 348 1608
4 23 8 24 13
4 8 13 14 24
4 8 24 14 9
4 22 7 23 12
4 7 12 13 23
4 7 23 13 8
4 21 6 22 11
4 6 11 12 22
4 6 22 12 7
4 20 5 21 10
4 5 10 11 21
4 5 21 11 6
4 3 8 24 23
4 3 8 9 24
4 3 4 24 9
4 2 7 23 22
4 2 7 8 23
4 2 3 23 8
4 1 6 22 21
4 1 6 7 22
4 1 2 22 7
4 0 5 21 20
4 0 5 6 21
4 0 1 21 6
4 23 48 49 28
4 23 28 49 29
4 23 24 29 49
4 22 47 48 27
4 22 27 48 28
4 22 23 28 48
4 21 46 47 26
4 21 26 47 27
4 21 22 27 47
4 20 45 46 25
4 20 25 46 26
4 20 21 26 46
4 23 13 49 48
4 23 13 24 49
4 13 24 49 14
4 22 12 48 47
4 22 12 23 48
4 12 23 48 13
4 21 11 47 46
4 21 11 22 47
4 11 22 47 12
4 20 10 46 45
4 20 10 21 46
4 10 21 46 11
4 13 18 49 48
4 13 18 19 49
4 13 14 49 19
4 12 17 48 47
4 12 17 18 48
4 12 13 48 18
4 11 16 47 46
4 11 16 17 47
4 11 12 47 17
4 10 15 46 45
4 10 15 16 46
4 10 11 46 16
4 13 8 19 18
4 13 8 14 19
4 8 14 19 9
4 12 7 18 17
4 12 7 13 18
4 7 13 18 8
4 11 6 17 16
4 11 6 12 17
4 6 12 17 7
4 10 5 16 15
4 10 5 11 16
4 5 11 16 6
4 8 33 34 18
4 8 18 34 19
4 8 9 19 34
4 7 32 33 17
4 7 17 33 18
4 7 8 18 33
4 6 31 32 16
4 6 16 32 17
4 6 7 17 32
4 5 30 31 15
4 5 15 31 16
4 5 6 16 31
4 33 8 34 3
4 8 3 9 34
4 3 34 4 9
4 32 7 33 2
4 7 2 8 33
4 2 33 3 8
4 31 6 32 1
4 6 1 7 32
4 1 32 2 7
4 30 5 31 0
4 5 0 6 31
4 0 31 1 6
4 33 3 34 23
4 3 23 24 34
4 3 34 24 4
4 32 2 33 22
4 2 22 23 33
4 2 33 23 3
4 31 1 32 21
4 1 21 22 32
4 1 32 22 2
4 30 0 31 20
4 0 20 21 31
4 0 31 21 1
4 33 23 34 28
4 23 28 29 34
4 23 34 29 24
4 32 22 33 27
4 22 27 28 33
4 22 33 28 23
4 31 21 32 26
4 21 26 27 32
4 21 32 27 22
4 30 20 31 25
4 20 25 26 31
4 20 31 26 21
4 58 53 59 48
4 53 48 54 59
4 48 59 49 54
4 57 52 58 47
4 52 47 53 58
4 47 58 48 53
4 56 51 57 46
4 51 46 52 57
4 46 57 47 52
4 55 50 56 45
4 50 45 51 56
4 45 56 46 51
4 28 48 54 53
4 28 48 49 54
4 28 29 54 49
4 27 47 53 52
4 27 47 48 53
4 27 28 53 48
4 26 46 52 51
4 26 46 47 52
4 26 27 52 47
4 25 45 51 50
4 25 45 46 51
4 25 26 51 46
4 33 28 54 53
4 33 28 34 54
4 28 34 54 29
4 32 27 53 52
4 32 27 33 53
4 27 33 53 28
4 31 26 52 51
4 31 26 32 52
4 26 32 52 27
4 30 25 51 50
4 30 25 31 51
4 25 31 51 26
4 53 38 54 33
4 38 33 39 54
4 33 54 34 39
4 52 37 53 32
4 37 32 38 53
4 32 53 33 38
4 51 36 52 31
4 36 31 37 52
4 31 52 32 37
4 50 35 51 30
4 35 30 36 51
4 30 51 31 36
4 38 43 44 33
4 38 33 44 39
4 33 39 34 44
4 37 42 43 32
4 37 32 43 38
4 32 38 33 43
4 36 41 42 31
4 36 31 42 37
4 31 37 32 42
4 35 40 41 30
4 35 30 41 36
4 30 36 31 41
4 33 43 44 18
4 33 18 44 34
4 18 34 19 44
4 32 42 43 17
4 32 17 43 33
4 17 33 18 43
4 31 41 42 16
4 31 16 42 32
4 16 32 17 42
4 30 40 41 15
4 30 15 41 31
4 15 31 16 41
4 18 43 49 48
4 18 43 44 49
4 18 19 49 44
4 17 42 48 47
4 17 42 43 48
4 17 18 48 43
4 16 41 47 46
4 16 41 42 47
4 16 17 47 42
4 15 40 46 45
4 15 40 41 46
4 15 16 46 41
4 43 58 59 48
4 43 48 59 49
4 43 44 49 59
4 42 57 58 47
4 42 47 58 48
4 42 43 48 58
4 41 56 57 46
4 41 46 57 47
4 41 42 47 57
4 40 55 56 45
4 40 45 56 46
4 40 41 46 56
3 24 14 9
3 4 24 9
3 24 29 49
3 24 49 14
3 14 49 19
3 14 19 9
3 9 19 34
3 34 4 9
3 34 24 4
3 34 29 24
3 59 49 54
3 29 54 49
3 34 54 29
3 54 34 39
3 39 34 44
3 34 19 44
3 19 49 44
3 44 49 59
3 10 20 5
3 20 0 5
3 25 20 45
3 45 20 10
3 45 10 15
3 15 10 5
3 15 5 30
3 0 30 5
3 20 30 0
3 25 30 20
3 45 55 50
3 50 25 45
3 50 30 25
3 30 50 35
3 30 35 40
3 15 30 40
3 45 15 40
3 45 40 55
3 13 24 23
3 24 13 14
3 12 23 22
3 23 12 13
3 11 22 21
3 22 11 12
3 10 21 20
3 21 10 11
3 23 24 3
3 4 3 24
3 22 23 2
3 3 2 23
3 21 22 1
3 2 1 22
3 20 21 0
3 1 0 21
3 3 9 8
3 9 3 4
3 2 8 7
3 8 2 3
3 1 7 6
3 7 1 2
3 0 6 5
3 6 0 1
3 8 14 13
3 14 8 9
3 7 13 12
3 13 7 8
3 6 12 11
3 12 6 7
3 5 11 10
3 11 5 6
3 48 49 28
3 29 28 49
3 47 48 27
3 28 27 48
3 46 47 26
3 27 26 47
3 45 46 25
3 26 25 46
3 28 34 33
3 34 28 29
3 27 33 32
3 33 27 28
3 26 32 31
3 32 26 27
3 25 31 30
3 31 25 26
3 33 34 18
3 19 18 34
3 32 33 17
3 18 17 33
3 31 32 16
3 17 16 32
3 30 31 15
3 16 15 31
3 18 49 48
3 49 18 19
3 17 48 47
3 48 17 18
3 16 47 46
3 47 16 17
3 15 46 45
3 46 15 16
3 58 59 53
3 54 53 59
3 57 58 52
3 53 52 58
3 56 57 51
3 52 51 57
3 55 56 50
3 51 50 56
3 53 54 38
3 39 38 54
3 52 53 37
3 38 37 53
3 51 52 36
3 37 36 52
3 50 51 35
3 36 35 51
3 38 44 43
3 44 38 39
3 37 43 42
3 43 37 38
3 36 42 41
3 42 36 37
3 35 41 40
3 41 35 36
3 43 59 58
3 59 43 44
3 42 58 57
3 58 42 43
3 41 57 56
3 57 41 42
3 40 56 55
3 56 40 41

CELL_TYPES 348
10 10 10 10 10 10 10 10 10 10 10 10 10 10 10 10 10 10 10 10 10 10 10 10 10 10 10 10 10 10 10 10 10 10 10 10 10 10 10 10 10 10 10 10 10 10 10 10 10 10 10 10 10 10 10 10 10 10 10 10 10 10 10 10 10 10 10 10 10 10 10 10 10 10 10 10 10 10 10 10 10 10 10 10 10 10 10 10 10 10 10 10 10 10 10 10 10 10 10 10 10 10 10 10 10 10 10 10 10 10 10 10 10 10 10 10 10 10 10 10 10 10 10 10 10 10 10 10 10 10 10 10 10 10 10 10 10 10 10 10 10 10 10 10 10 10 10 10 10 10 10 10 10 10 10 10 10 10 10 10 10 10 10 10 10 10 10 10 10 10 10 10 10 10 10 10 10 10 10 10 10 10 10 10 10 10 10 10 10 10 10 10 10 10 10 10 10 10 10 10 10 10 10 10 10 10 10 10 10 10 10 10 10 10 10 10 5 5 5 5 5 5 5 5 5 5 5 5 5 5 5 5 5 5 5 5 5 5 5 5 5 5 5 5 5 5 5 5 5 5 5 5 5 5 5 5 5 5 5 5 5 5 5 5 5 5 5 5 5 5 5 5 5 5 5 5 5 5 5 5 5 5 5 5 5 5 5 5 5 5 5 5 5 5 5 5 5 5 5 5 5 5 5 5 5 5 5 5 5 5 5 5 5 5 5 5 5 5 5 5 5 5 5 5 5 5 5 5 5 5 5 5 5 5 5 5 5 5 5 5 5 5 5 5 5 5 5 5 
CELL_DATA 348
Scalars  Label int1
LOOKUP_TABLE FreeFempp_table
0
0
0
0
0
0
0
0
0
0
0
0
0
0
0
0
0
0
0
0
0
0
0
0
1
1
1
1
1
1
1
1
1
1
1
1
1
1
1
1
1
1
1
1
1
1
1
1
1
1
1
1
1
1
1
1
1
1
1
1
1
1
1
1
1
1
1
1
1
1
1
1
1
1
1
1
1
1
1
1
1
1
1
1
1
1
1
1
1
1
1
1
1
1
1
1
1
1
1
1
1
1
1
1
1
1
1
1
1
1
1
1
1
1
1
1
1
1
1
1
2
2
2
2
2
2
2
2
2
2
2
2
2
2
2
2
2
2
2
2
2
2
2
2
2
2
2
2
2
2
2
2
2
2
2
2
2
2
2
2
2
2
2
2
2
2
2
2
2
2
2
2
2
2
2
2
2
2
2
2
2
2
2
2
2
2
2
2
2
2
2
2
2
2
2
2
2
2
2
2
2
2
2
2
2
2
2
2
2
2
2
2
2
2
2
2
1
1
1
1
1
1
1
1
1
1
2
2
2
2
2
2
2
2
1
1
1
1
1
1
1
1
1
1
2
2
2
2
2
2
2
2
4
4
4
4
4
4
4
4
4
4
4
4
4
4
4
4
4
4
4
4
4
4
4
4
4
4
4
4
4
4
4
4
3
3
3
3
3
3
3
3
3
3
3
3
3
3
3
3
3
3
3
3
3
3
3
3
3
3
3
3
3
3
3
3
2
2
2
2
2
2
2
2
2
2
2
2
2
2
2
2
2
2
2
2
2
2
2
2
2
2
2
2
2
2
2
2

LOOKUP_TABLE FreeFempp_table 5
1.00000000 0.00000000 0.00000000 1.00000000
1.00000000 1.00000000 0.00000000 1.00000000
1.00000000 0.00000000 1.00000000 1.00000000
0.00000000 1.00000000 0.00000000 1.00000000
0.00000000 1.00000000 1.00000000 1.00000000

FIELD FieldData 2
init 3 348 float
-2.06541538e-01 -5.08733392e-01 2.72082716e-01 2.81342436e-02 -6.77391648e-01 2.79099107e-01 2.34675780e-01 -5.63803554e-01 2.89976746e-01 -2.34675780e-01 -3.56263965e-01 2.38659158e-01 9.42118932e-03 -5.76831460e-01 2.45544598e-01 2.44096979e-01 -4.01753992e-01 2.54319638e-01 -2.44096979e-01 -2.67686218e-01 2.09971398e-01 9.76276409e-04 -5.11320531e-01 2.16403902e-01 2.45073259e-01 -2.87707150e-01 2.23451614e-01 -2.45073259e-01 -2.64431030e-01 1.85585201e-01 -1.93276632e-04 -4.99919981e-01 1.91403821e-01 2.44879976e-01 -2.55810618e-01 1.97105080e-01 -2.06541538e-01 -1.90953296e-02 2.74838060e-01 2.34675780e-01 -7.83577412e-02 2.84374982e-01 -1.13041629e-16 2.40195855e-01 2.96636343e-01 -2.34675780e-01 1.33898661e-01 2.39773765e-01 2.44096979e-01 8.61816704e-02 2.47999921e-01 -8.52047382e-17 3.55252236e-01 2.57640719e-01 -2.44096979e-01 2.22464114e-01 2.10104406e-01 2.45073259e-01 2.01624304e-01 2.17085794e-01 -3.00730578e-17 4.48152632e-01 2.24632919e-01 -2.45073259e-01 2.25740954e-01 1.85222462e-01 2.44879976e-01 2.34705150e-01 1.91107407e-01 -3.00324002e-17 4.89366531e-01 1.97059035e-01 -4.19687271e-01 -4.35466439e-01 2.34866306e-01 -6.02055907e-01 -2.84089327e-01 2.47388512e-01 -6.23585939e-01 -3.98876876e-01 2.65449852e-01 -4.29818243e-01 -3.89227659e-01 2.09765136e-01 -6.14829719e-01 -2.18869999e-01 2.18726292e-01 -6.63784266e-01 -2.83947319e-01 2.34419048e-01 -4.30863917e-01 -3.70440006e-01 1.87421426e-01 -6.16585195e-01 -1.88777119e-01 1.93728760e-01 -6.74891472e-01 -2.10101858e-01 2.07274482e-01 -4.30656970e-01 -3.82106453e-01 1.67679429e-01 -6.16447628e-01 -1.97230220e-01 1.72126338e-01 -6.75743878e-01 -1.96014896e-01 1.83814526e-01 -2.34675780e-01 -6.63842082e-01 2.42050037e-01 -4.41217333e-01 -6.12535536e-01 2.64303833e-01 -2.06541538e-01 -7.81193793e-01 2.71320224e-01 -2.44096979e-01 -6.29382432e-01 2.16682836e-01 -4.78772759e-01 -5.14549911e-01 2.34168425e-01 -2.34675780e-01 -7.35117435e-01 2.41053879e-01 -2.45073259e-01 -6.15378082e-01 1.93919420e-01 -4.89170223e-01 -4.51075524e-01 2.07693353e-01 -2.44096979e-01 -6.94709837e-01 2.14125857e-01 -2.44879976e-01 -6.25000477e-01 1.73666373e-01 -4.89953220e-01 -4.40609187e-01 1.84677601e-01 -2.45073259e-01 -6.76098168e-01 1.90496221e-01 1.85011476e-01 -6.08316958e-01 2.33525604e-01 3.67380112e-01 -4.56939846e-01 2.46047795e-01 1.82368621e-01 -6.81123257e-01 2.61588603e-01 1.85721263e-01 -6.12022102e-01 2.09216252e-01 3.70732754e-01 -4.41664457e-01 2.18177408e-01 1.85011476e-01 -6.79592311e-01 2.32529446e-01 1.85790673e-01 -6.14893138e-01 1.87355101e-01 3.71511936e-01 -4.33230281e-01 1.93662435e-01 1.85721263e-01 -6.77349508e-01 2.06659257e-01 1.85776994e-01 -6.17251635e-01 1.67863116e-01 3.71567667e-01 -4.32375401e-01 1.72310010e-01 1.85790673e-01 -6.75613225e-01 1.83931902e-01 6.02055907e-01 -3.53137702e-01 2.53826678e-01 4.17044401e-01 -5.77321112e-01 2.69367516e-01 6.23585939e-01 -4.63733017e-01 2.80245125e-01 6.14829719e-01 -2.83378482e-01 2.22668126e-01 4.29108471e-01 -5.21306336e-01 2.37020165e-01 6.63784266e-01 -3.46228838e-01 2.45795205e-01 6.16585195e-01 -2.49840990e-01 1.95940495e-01 4.30794507e-01 -4.93960172e-01 2.08937317e-01 6.74891472e-01 -2.70346820e-01 2.15985030e-01 6.16447628e-01 -2.56197214e-01 1.73217624e-01 4.30670649e-01 -4.99435067e-01 1.84839502e-01 6.75743878e-01 -2.55325705e-01 1.90540761e-01 4.19687271e-01 3.16400439e-01 2.61913925e-01 6.02055907e-01 9.32887569e-02 2.65120476e-01 6.23585939e-01 -2.14988068e-02 2.83181816e-01 4.29818243e-01 3.57733637e-01 2.22879201e-01 6.14829719e-01 1.55618787e-01 2.28041962e-01 6.63784266e-01 9.05414745e-02 2.43734702e-01 4.30863917e-01 3.73638988e-01 1.91680863e-01 6.16585195e-01 1.83695391e-01 1.97527170e-01 6.74891472e-01 1.62370652e-01 2.11072877e-01 4.30656970e-01 3.61479968e-01 1.66845247e-01 6.16447628e-01 1.74376249e-01 1.72587380e-01 6.75743878e-01 1.75591573e-01 1.84275582e-01 2.34675780e-01 5.77662826e-01 2.71853000e-01 4.41217333e-01 2.54480630e-01 2.84791142e-01 2.06541538e-01 5.73034227e-01 2.97052473e-01 2.44096979e-01 6.07741475e-01 2.30911523e-01 4.78772759e-01 3.50101471e-01 2.44598702e-01 2.34675780e-01 6.19172037e-01 2.54239500e-01 2.45073259e-01 6.18851244e-01 1.98311865e-01 4.89170223e-01 4.11547303e-01 2.11624756e-01 2.44096979e-01 6.58075690e-01 2.19171867e-01 2.44879976e-01 6.08757854e-01 1.72469452e-01 4.89953220e-01 4.21169251e-01 1.84775904e-01 2.45073259e-01 6.75830603e-01 1.90727532e-01 -2.34675780e-01 5.77662826e-01 2.71853000e-01 -4.41217333e-01 2.54480630e-01 2.84791142e-01 -2.06541538e-01 5.73034227e-01 2.97052473e-01 -2.44096979e-01 6.07741475e-01 2.30911523e-01 -4.78772759e-01 3.50101471e-01 2.44598702e-01 -2.34675780e-01 6.19172037e-01 2.54239500e-01 -2.45073259e-01 6.18851244e-01 1.98311865e-01 -4.89170223e-01 4.11547303e-01 2.11624756e-01 -2.44096979e-01 6.58075690e-01 2.19171867e-01 -2.44879976e-01 6.08757854e-01 1.72469452e-01 -4.89953220e-01 4.21169251e-01 1.84775904e-01 -2.45073259e-01 6.75830603e-01 1.90727532e-01 -4.19687271e-01 3.16400439e-01 2.61913925e-01 -6.02055907e-01 9.32887569e-02 2.65120476e-01 -6.23585939e-01 -2.14988068e-02 2.83181816e-01 -4.29818243e-01 3.57733637e-01 2.22879201e-01 -6.14829719e-01 1.55618787e-01 2.28041962e-01 -6.63784266e-01 9.05414745e-02 2.43734702e-01 -4.30863917e-01 3.73638988e-01 1.91680863e-01 -6.16585195e-01 1.83695391e-01 1.97527170e-01 -6.74891472e-01 1.62370652e-01 2.11072877e-01 -4.30656970e-01 3.61479968e-01 1.66845247e-01 -6.16447628e-01 1.74376249e-01 1.72587380e-01 -6.75743878e-01 1.75591573e-01 1.84275582e-01 -6.24186657e-02 -3.00981611e-01 1.44692615e-01 -1.24557763e-01 -2.44159952e-01 1.54549450e-01 -6.21390976e-02 -4.15277809e-01 1.79412350e-01 -6.24927692e-02 -3.07175130e-01 1.32850215e-01 -1.24911435e-01 -2.47060999e-01 1.39325529e-01 -6.24186657e-02 -4.26236272e-01 1.63417712e-01 -6.24999963e-02 -3.10194165e-01 1.21774040e-01 -1.24992765e-01 -2.48258278e-01 1.25624508e-01 -6.24927692e-02 -4.32230622e-01 1.48474678e-01 -6.24985695e-02 -3.09974849e-01 1.11475274e-01 -1.24998562e-01 -2.47733697e-01 1.13364965e-01 -6.24999963e-02 -4.33230311e-01 1.34672359e-01 -3.09569240e-01 -1.99056953e-01 1.82235703e-01 -2.47150585e-01 -3.70174825e-01 2.07098603e-01 -4.29519206e-01 -2.18797714e-01 2.19620809e-01 -3.10632706e-01 -1.90453649e-01 1.61257327e-01 -2.48139918e-01 -3.69628906e-01 1.85349509e-01 -4.33151394e-01 -1.99271247e-01 1.94310665e-01 -3.10783446e-01 -1.86418176e-01 1.42969728e-01 -2.48283446e-01 -3.70390534e-01 1.65819898e-01 -4.34004694e-01 -1.88727662e-01 1.72127247e-01 -3.10775548e-01 -1.87062591e-01 1.27128750e-01 -2.48276979e-01 -3.72559220e-01 1.48436144e-01 -4.34067667e-01 -1.87682971e-01 1.52883053e-01 -3.09569240e-01 1.75431833e-01 1.91551372e-01 -2.47150585e-01 3.81692052e-01 2.34146237e-01 -4.29519206e-01 1.58580363e-01 2.37352774e-01 -3.10632706e-01 1.82018861e-01 1.65055722e-01 -2.48139918e-01 3.77332389e-01 1.98463574e-01 -4.33151394e-01 1.75217539e-01 2.03626335e-01 -3.10783446e-01 1.85188293e-01 1.43430769e-01 -2.48283446e-01 3.73688430e-01 1.70079350e-01 -4.34004694e-01 1.83744848e-01 1.75925642e-01 -3.10775548e-01 1.84917361e-01 1.25833511e-01 -2.48276979e-01 3.71027201e-01 1.47601962e-01 -4.34067667e-01 1.83923498e-01 1.53344095e-01 -1.24557763e-01 2.57336676e-01 1.74792856e-01 -6.21390976e-02 3.34470183e-01 1.94599032e-01 -6.21390976e-02 4.70616132e-01 2.29835063e-01 -1.24911435e-01 2.50265241e-01 1.46797329e-01 -6.24186657e-02 3.19088966e-01 1.58323437e-01 -6.24186657e-02 4.49685067e-01 1.88873366e-01 -1.24992765e-01 2.47847483e-01 1.25202656e-01 -6.24927692e-02 3.12031329e-01 1.31587282e-01 -6.24927692e-02 4.37970430e-01 1.57900065e-01 -1.24998562e-01 2.49967486e-01 1.08493596e-01 -6.24999963e-02 3.12757343e-01 1.11801095e-01 -6.24999963e-02 4.35386628e-01 1.34497717e-01 1.24557763e-01 2.57336676e-01 1.74792856e-01 6.21390976e-02 3.34470183e-01 1.94599032e-01 6.21390976e-02 4.70616132e-01 2.29835063e-01 1.24911435e-01 2.50265241e-01 1.46797329e-01 6.24186657e-02 3.19088966e-01 1.58323437e-01 6.24186657e-02 4.49685067e-01 1.88873366e-01 1.24992765e-01 2.47847483e-01 1.25202656e-01 6.24927692e-02 3.12031329e-01 1.31587282e-01 6.24927692e-02 4.37970430e-01 1.57900065e-01 1.24998562e-01 2.49967486e-01 1.08493596e-01 6.24999963e-02 3.12757343e-01 1.11801095e-01 6.24999963e-02 4.35386628e-01 1.34497717e-01 3.09569240e-01 1.75431833e-01 1.91551372e-01 2.47150585e-01 3.81692052e-01 2.34146237e-01 4.29519206e-01 1.58580363e-01 2.37352774e-01 3.10632706e-01 1.82018861e-01 1.65055722e-01 2.48139918e-01 3.77332389e-01 1.98463574e-01 4.33151394e-01 1.75217539e-01 2.03626335e-01 3.10783446e-01 1.85188293e-01 1.43430769e-01 2.48283446e-01 3.73688430e-01 1.70079350e-01 4.34004694e-01 1.83744848e-01 1.75925642e-01 3.10775548e-01 1.84917361e-01 1.25833511e-01 2.48276979e-01 3.71027201e-01 1.47601962e-01 4.34067667e-01 1.83923498e-01 1.53344095e-01 2.47430146e-01 -3.68150681e-01 2.02224523e-01 3.09569240e-01 -1.92290083e-01 1.87173709e-01 4.29519206e-01 -2.18797714e-01 2.19620809e-01 2.48214021e-01 -3.68338376e-01 1.81182235e-01 3.10632706e-01 -1.86190128e-01 1.66026041e-01 4.33151394e-01 -1.99271247e-01 1.94310665e-01 2.48290673e-01 -3.69856954e-01 1.62293196e-01 3.10783446e-01 -1.84665114e-01 1.47484228e-01 4.34004694e-01 -1.88727662e-01 1.72127247e-01 2.48275563e-01 -3.72788012e-01 1.45464420e-01 3.10775548e-01 -1.87813625e-01 1.31347418e-01 4.34067667e-01 -1.87682971e-01 1.52883053e-01 6.24186657e-02 -3.00981611e-01 1.44692615e-01 6.24186657e-02 -4.13253695e-01 1.74538270e-01 1.24557763e-01 -2.37393096e-01 1.59487441e-01 6.24927692e-02 -3.07175130e-01 1.32850215e-01 6.24927692e-02 -4.24945742e-01 1.59250438e-01 1.24911435e-01 -2.42797494e-01 1.44094244e-01 6.24999963e-02 -3.10194165e-01 1.21774040e-01 6.24999963e-02 -4.31697041e-01 1.44947976e-01 1.24992765e-01 -2.46505216e-01 1.30138993e-01 6.24985695e-02 -3.09974849e-01 1.11475274e-01 6.24985695e-02 -4.33459103e-01 1.31700635e-01 1.24998562e-01 -2.48484731e-01 1.17583640e-01 2.34675780e-01 -5.63803554e-01 2.89976746e-01 -1.13041629e-16 2.40195855e-01 2.96636343e-01 -6.23585939e-01 -3.98876876e-01 2.65449852e-01 -2.06541538e-01 -7.81193793e-01 2.71320224e-01 1.82368621e-01 -6.81123257e-01 2.61588603e-01 6.23585939e-01 -4.63733017e-01 2.80245125e-01 6.23585939e-01 -2.14988068e-02 2.83181816e-01 2.06541538e-01 5.73034227e-01 2.97052473e-01 -2.06541538e-01 5.73034227e-01 2.97052473e-01 -6.23585939e-01 -2.14988068e-02 2.83181816e-01 -6.21390976e-02 -4.15277809e-01 1.79412350e-01 -4.29519206e-01 -2.18797714e-01 2.19620809e-01 -4.29519206e-01 1.58580363e-01 2.37352774e-01 -6.21390976e-02 4.70616132e-01 2.29835063e-01 6.21390976e-02 4.70616132e-01 2.29835063e-01 4.29519206e-01 1.58580363e-01 2.37352774e-01 4.29519206e-01 -2.18797714e-01 2.19620809e-01 1.24557763e-01 -2.37393096e-01 1.59487441e-01 -2.45073259e-01 -2.64431030e-01 1.85585201e-01 -2.45073259e-01 2.25740954e-01 1.85222462e-01 -4.30656970e-01 -3.82106453e-01 1.67679429e-01 -2.44879976e-01 -6.25000477e-01 1.73666373e-01 1.85776994e-01 -6.17251635e-01 1.67863116e-01 6.16447628e-01 -2.56197214e-01 1.73217624e-01 4.30656970e-01 3.61479968e-01 1.66845247e-01 2.44879976e-01 6.08757854e-01 1.72469452e-01 -2.44879976e-01 6.08757854e-01 1.72469452e-01 -4.30656970e-01 3.61479968e-01 1.66845247e-01 -6.24985695e-02 -3.09974849e-01 1.11475274e-01 -3.10775548e-01 -1.87062591e-01 1.27128750e-01 -3.10775548e-01 1.84917361e-01 1.25833511e-01 -1.24998562e-01 2.49967486e-01 1.08493596e-01 1.24998562e-01 2.49967486e-01 1.08493596e-01 3.10775548e-01 1.84917361e-01 1.25833511e-01 2.48275563e-01 -3.72788012e-01 1.45464420e-01 6.24985695e-02 -3.09974849e-01 1.11475274e-01 -4.41217333e-01 -6.12535536e-01 2.64303833e-01 -2.06541538e-01 -7.81193793e-01 2.71320224e-01 -4.78772759e-01 -5.14549911e-01 2.34168425e-01 -2.34675780e-01 -7.35117435e-01 2.41053879e-01 -4.89170223e-01 -4.51075524e-01 2.07693353e-01 -2.44096979e-01 -6.94709837e-01 2.14125857e-01 -4.89953220e-01 -4.40609187e-01 1.84677601e-01 -2.45073259e-01 -6.76098168e-01 1.90496221e-01 -4.41217333e-01 2.54480630e-01 2.84791142e-01 -2.06541538e-01 5.73034227e-01 2.97052473e-01 -4.78772759e-01 3.50101471e-01 2.44598702e-01 -2.34675780e-01 6.19172037e-01 2.54239500e-01 -4.89170223e-01 4.11547303e-01 2.11624756e-01 -2.44096979e-01 6.58075690e-01 2.19171867e-01 -4.89953220e-01 4.21169251e-01 1.84775904e-01 -2.45073259e-01 6.75830603e-01 1.90727532e-01 4.41217333e-01 2.54480630e-01 2.84791142e-01 2.06541538e-01 5.73034227e-01 2.97052473e-01 4.78772759e-01 3.50101471e-01 2.44598702e-01 2.34675780e-01 6.19172037e-01 2.54239500e-01 4.89170223e-01 4.11547303e-01 2.11624756e-01 2.44096979e-01 6.58075690e-01 2.19171867e-01 4.89953220e-01 4.21169251e-01 1.84775904e-01 2.45073259e-01 6.75830603e-01 1.90727532e-01 4.17044401e-01 -5.77321112e-01 2.69367516e-01 6.23585939e-01 -4.63733017e-01 2.80245125e-01 4.29108471e-01 -5.21306336e-01 2.37020165e-01 6.63784266e-01 -3.46228838e-01 2.45795205e-01 4.30794507e-01 -4.93960172e-01 2.08937317e-01 6.74891472e-01 -2.70346820e-01 2.15985030e-01 4.30670649e-01 -4.99435067e-01 1.84839502e-01 6.75743878e-01 -2.55325705e-01 1.90540761e-01 -2.47150585e-01 -3.70174825e-01 2.07098603e-01 -4.29519206e-01 -2.18797714e-01 2.19620809e-01 -2.48139918e-01 -3.69628906e-01 1.85349509e-01 -4.33151394e-01 -1.99271247e-01 1.94310665e-01 -2.48283446e-01 -3.70390534e-01 1.65819898e-01 -4.34004694e-01 -1.88727662e-01 1.72127247e-01 -2.48276979e-01 -3.72559220e-01 1.48436144e-01 -4.34067667e-01 -1.87682971e-01 1.52883053e-01 -2.47150585e-01 3.81692052e-01 2.34146237e-01 -4.29519206e-01 1.58580363e-01 2.37352774e-01 -2.48139918e-01 3.77332389e-01 1.98463574e-01 -4.33151394e-01 1.75217539e-01 2.03626335e-01 -2.48283446e-01 3.73688430e-01 1.70079350e-01 -4.34004694e-01 1.83744848e-01 1.75925642e-01 -2.48276979e-01 3.71027201e-01 1.47601962e-01 -4.34067667e-01 1.83923498e-01 1.53344095e-01 2.47150585e-01 3.81692052e-01 2.34146237e-01 4.29519206e-01 1.58580363e-01 2.37352774e-01 2.48139918e-01 3.77332389e-01 1.98463574e-01 4.33151394e-01 1.75217539e-01 2.03626335e-01 2.48283446e-01 3.73688430e-01 1.70079350e-01 4.34004694e-01 1.83744848e-01 1.75925642e-01 2.48276979e-01 3.71027201e-01 1.47601962e-01 4.34067667e-01 1.83923498e-01 1.53344095e-01 2.47430146e-01 -3.68150681e-01 2.02224523e-01 4.29519206e-01 -2.18797714e-01 2.19620809e-01 2.48214021e-01 -3.68338376e-01 1.81182235e-01 4.33151394e-01 -1.99271247e-01 1.94310665e-01 2.48290673e-01 -3.69856954e-01 1.62293196e-01 4.34004694e-01 -1.88727662e-01 1.72127247e-01 2.48275563e-01 -3.72788012e-01 1.45464420e-01 4.34067667e-01 -1.87682971e-01 1.52883053e-01 -6.24186657e-02 -3.00981611e-01 1.44692615e-01 -1.24557763e-01 -2.44159952e-01 1.54549450e-01 -6.24927692e-02 -3.07175130e-01 1.32850215e-01 -1.24911435e-01 -2.47060999e-01 1.39325529e-01 -6.24999963e-02 -3.10194165e-01 1.21774040e-01 -1.24992765e-01 -2.48258278e-01 1.25624508e-01 -6.24985695e-02 -3.09974849e-01 1.11475274e-01 -1.24998562e-01 -2.47733697e-01 1.13364965e-01 -1.24557763e-01 2.57336676e-01 1.74792856e-01 -6.21390976e-02 3.34470183e-01 1.94599032e-01 -1.24911435e-01 2.50265241e-01 1.46797329e-01 -6.24186657e-02 3.19088966e-01 1.58323437e-01 -1.24992765e-01 2.47847483e-01 1.25202656e-01 -6.24927692e-02 3.12031329e-01 1.31587282e-01 -1.24998562e-01 2.49967486e-01 1.08493596e-01 -6.24999963e-02 3.12757343e-01 1.11801095e-01 1.24557763e-01 2.57336676e-01 1.74792856e-01 6.21390976e-02 3.34470183e-01 1.94599032e-01 1.24911435e-01 2.50265241e-01 1.46797329e-01 6.24186657e-02 3.19088966e-01 1.58323437e-01 1.24992765e-01 2.47847483e-01 1.25202656e-01 6.24927692e-02 3.12031329e-01 1.31587282e-01 1.24998562e-01 2.49967486e-01 1.08493596e-01 6.24999963e-02 3.12757343e-01 1.11801095e-01 6.24186657e-02 -3.00981611e-01 1.44692615e-01 1.24557763e-01 -2.37393096e-01 1.59487441e-01 6.24927692e-02 -3.07175130e-01 1.32850215e-01 1.24911435e-01 -2.42797494e-01 1.44094244e-01 6.24999963e-02 -3.10194165e-01 1.21774040e-01 1.24992765e-01 -2.46505216e-01 1.30138993e-01 6.24985695e-02 -3.09974849e-01 1.11475274e-01 1.24998562e-01 -2.48484731e-01 1.17583640e-01 
scalaire2 1 348 float
0.00000000e+00 0.00000000e+00 0.00000000e+00 0.00000000e+00 0.00000000e+00 0.00000000e+00 0.00000000e+00 0.00000000e+00 0.00000000e+00 0.00000000e+00 0.00000000e+00 0.00000000e+00 0.00000000e+00 0.00000000e+00 0.00000000e+00 0.00000000e+00 0.00000000e+00 0.00000000e+00 0.00000000e+00 0.00000000e+00 0.00000000e+00 0.00000000e+00 0.00000000e+00 0.00000000e+00 0.00000000e+00 0.00000000e+00 0.00000000e+00 0.00000000e+00 0.00000000e+00 0.00000000e+00 0.00000000e+00 0.00000000e+00 0.00000000e+00 0.00000000e+00 0.00000000e+00 0.00000000e+00 0.00000000e+00 0.00000000e+00 0.00000000e+00 0.00000000e+00 0.00000000e+00 0.00000000e+00 0.00000000e+00 0.00000000e+00 0.00000000e+00 0.00000000e+00 0.00000000e+00 0.00000000e+00 0.00000000e+00 0.00000000e+00 0.00000000e+00 0.00000000e+00 0.00000000e+00 0.00000000e+00 0.00000000e+00 0.00000000e+00 0.00000000e+00 0.00000000e+00 0.00000000e+00 0.00000000e+00 0.00000000e+00 0.00000000e+00 0.00000000e+00 0.00000000e+00 0.00000000e+00 0.00000000e+00 0.00000000e+00 0.00000000e+00 0.00000000e+00 0.00000000e+00 0.00000000e+00 0.00000000e+00 0.00000000e+00 0.00000000e+00 0.00000000e+00 0.00000000e+00 0.00000000e+00 0.00000000e+00 0.00000000e+00 0.00000000e+00 0.00000000e+00 0.00000000e+00 0.00000000e+00 0.00000000e+00 0.00000000e+00 0.00000000e+00 0.00000000e+00 0.00000000e+00 0.00000000e+00 0.00000000e+00 0.00000000e+00 0.00000000e+00 0.00000000e+00 0.00000000e+00 0.00000000e+00 0.00000000e+00 0.00000000e+00 0.00000000e+00 0.00000000e+00 0.00000000e+00 0.00000000e+00 0.00000000e+00 0.00000000e+00 0.00000000e+00 0.00000000e+00 0.00000000e+00 0.00000000e+00 0.00000000e+00 0.00000000e+00 0.00000000e+00 0.00000000e+00 0.00000000e+00 0.00000000e+00 0.00000000e+00 0.00000000e+00 0.00000000e+00 0.00000000e+00 0.00000000e+00 0.00000000e+00 0.00000000e+00 0.00000000e+00 0.00000000e+00 0.00000000e+00 0.00000000e+00 0.00000000e+00 0.00000000e+00 0.00000000e+00 0.00000000e+00 0.00000000e+00 0.00000000e+00 0.00000000e+00 0.00000000e+00 0.00000000e+00 0.00000000e+00 0.00000000e+00 0.00000000e+00 0.00000000e+00 0.00000000e+00 0.00000000e+00 0.00000000e+00 0.00000000e+00 0.00000000e+00 0.00000000e+00 0.00000000e+00 0.00000000e+00 0.00000000e+00 0.00000000e+00 0.00000000e+00 0.00000000e+00 0.00000000e+00 0.00000000e+00 0.00000000e+00 0.00000000e+00 0.00000000e+00 0.00000000e+00 0.00000000e+00 0.00000000e+00 0.00000000e+00 0.00000000e+00 0.00000000e+00 0.00000000e+00 0.00000000e+00 0.00000000e+00 0.00000000e+00 0.00000000e+00 0.00000000e+00 0.00000000e+00 0.00000000e+00 0.00000000e+00 0.00000000e+00 0.00000000e+00 0.00000000e+00 0.00000000e+00 0.00000000e+00 0.00000000e+00 0.00000000e+00 0.00000000e+00 0.00000000e+00 0.00000000e+00 0.00000000e+00 0.00000000e+00 0.00000000e+00 0.00000000e+00 0.00000000e+00 0.00000000e+00 0.00000000e+00 0.00000000e+00 0.00000000e+00 0.00000000e+00 0.00000000e+00 0.00000000e+00 0.00000000e+00 0.00000000e+00 0.00000000e+00 0.00000000e+00 0.00000000e+00 0.00000000e+00 0.00000000e+00 0.00000000e+00 0.00000000e+00 0.00000000e+00 0.00000000e+00 0.00000000e+00 0.00000000e+00 0.00000000e+00 0.00000000e+00 0.00000000e+00 0.00000000e+00 0.00000000e+00 0.00000000e+00 0.00000000e+00 0.00000000e+00 0.00000000e+00 0.00000000e+00 0.00000000e+00 0.00000000e+00 0.00000000e+00 0.00000000e+00 0.00000000e+00 0.00000000e+00 0.00000000e+00 0.00000000e+00 0.00000000e+00 0.00000000e+00 0.00000000e+00 0.00000000e+00 0.00000000e+00 0.00000000e+00 0.00000000e+00 0.00000000e+00 0.00000000e+00 0.00000000e+00 0.00000000e+00 0.00000000e+00 0.00000000e+00 0.00000000e+00 0.00000000e+00 0.00000000e+00 0.00000000e+00 0.00000000e+00 0.00000000e+00 0.00000000e+00 0.00000000e+00 0.00000000e+00 0.00000000e+00 0.00000000e+00 0.00000000e+00 0.00000000e+00 0.00000000e+00 0.00000000e+00 0.00000000e+00 0.00000000e+00 0.00000000e+00 0.00000000e+00 0.00000000e+00 0.00000000e+00 0.00000000e+00 0.00000000e+00 0.00000000e+00 0.00000000e+00 0.00000000e+00 0.00000000e+00 0.00000000e+00 0.00000000e+00 0.00000000e+00 0.00000000e+00 0.00000000e+00 0.00000000e+00 0.00000000e+00 0.00000000e+00 0.00000000e+00 0.00000000e+00 0.00000000e+00 0.00000000e+00 0.00000000e+00 0.00000000e+00 0.00000000e+00 0.00000000e+00 0.00000000e+00 0.00000000e+00 0.00000000e+00 0.00000000e+00 0.00000000e+00 0.00000000e+00 0.00000000e+00 0.00000000e+00 0.00000000e+00 0.00000000e+00 0.00000000e+00 0.00000000e+00 0.00000000e+00 0.00000000e+00 0.00000000e+00 0.00000000e+00 0.00000000e+00 0.00000000e+00 0.00000000e+00 0.00000000e+00 0.00000000e+00 0.00000000e+00 0.00000000e+00 0.00000000e+00 0.00000000e+00 0.00000000e+00 0.00000000e+00 0.00000000e+00 0.00000000e+00 0.00000000e+00 0.00000000e+00 0.00000000e+00 0.00000000e+00 0.00000000e+00 0.00000000e+00 0.00000000e+00 0.00000000e+00 0.00000000e+00 0.00000000e+00 0.00000000e+00 0.00000000e+00 0.00000000e+00 0.00000000e+00 0.00000000e+00 0.00000000e+00 0.00000000e+00 0.00000000e+00 0.00000000e+00 0.00000000e+00 0.00000000e+00 0.00000000e+00 0.00000000e+00 0.00000000e+00 0.00000000e+00 0.00000000e+00 0.00000000e+00 0.00000000e+00 0.00000000e+00 0.00000000e+00 0.00000000e+00 0.00000000e+00 0.00000000e+00 0.00000000e+00 0.00000000e+00 0.00000000e+00 0.00000000e+00 0.00000000e+00 0.00000000e+00 0.00000000e+00 0.00000000e+00 
