# vtk DataFile Version 2.0
Curve0_init.vtk, Created by Freefem++ 
ASCII
DATASET UNSTRUCTURED_GRID
POINTS 60 float
0.10370973 0.00000000 2.11867261
0.10023193 0.00000000 1.97031367
0.10834350 0.00000000 1.82213581
0.12799494 0.00000000 1.67504299
0.15906639 0.00000000 1.52993250
0.00390498 0.10000000 2.12491870
0.00024414 0.10000000 1.96875131
0.00878263 0.10000000 1.81277454
0.02946837 0.10000000 1.65793991
0.06217516 0.10000000 1.50519204
-0.09589978 0.00000000 2.13116455
-0.09974366 0.00000000 1.96718884
-0.09077824 0.00000000 1.80341327
-0.06905822 0.00000000 1.64083695
-0.03471608 0.00000000 1.48045170
0.00390498 -0.10000000 2.12491870
0.00024414 -0.10000000 1.96875131
0.00878263 -0.10000000 1.81277454
0.02946837 -0.10000000 1.65793991
0.06217516 -0.10000000 1.50519204
0.40312397 0.00000000 2.09993482
0.40019530 0.00000000 1.97500098
0.40702611 0.00000000 1.85021961
0.42357469 0.00000000 1.72635198
0.44974011 0.00000000 1.60415363
0.00390498 0.40000001 2.12491870
0.00024414 0.40000001 1.96875131
0.00878263 0.40000001 1.81277454
0.02946837 0.40000001 1.65793991
0.06217516 0.40000001 1.50519204
-0.39531404 0.00000000 2.14990234
-0.39970705 0.00000000 1.96250153
-0.38946086 0.00000000 1.77532947
-0.36463797 0.00000000 1.58952796
-0.32538980 0.00000000 1.40623045
0.00390498 -0.40000001 2.12491870
0.00024414 -0.40000001 1.96875131
0.00878263 -0.40000001 1.81277454
0.02946837 -0.40000001 1.65793991
0.06217516 -0.40000001 1.50519204
1.00195253 0.00000000 2.06245923
1.00012207 0.00000000 1.98437560
1.00439131 0.00000000 1.90638721
1.01473415 0.00000000 1.82896996
1.03108764 0.00000000 1.75259602
0.00390498 1.00000000 2.12491870
0.00024414 1.00000000 1.96875131
0.00878263 1.00000000 1.81277454
0.02946837 1.00000000 1.65793991
0.06217516 1.00000000 1.50519204
-0.99414253 0.00000000 2.18737793
-0.99963379 0.00000000 1.95312691
-0.98682606 0.00000000 1.71916175
-0.95579743 0.00000000 1.48690999
-0.90673727 0.00000000 1.25778818
0.00390498 -1.00000000 2.12491870
0.00024414 -1.00000000 1.96875131
0.00878263 -1.00000000 1.81277454
0.02946837 -1.00000000 1.65793991
0.06217516 -1.00000000 1.50519204

CELLS 348 1608
4 8 18 19 3
4 8 3 19 9
4 3 9 4 19
4 7 17 18 2
4 7 2 18 8
4 2 8 3 18
4 6 16 17 1
4 6 1 17 7
4 1 7 2 17
4 5 15 16 0
4 5 0 16 6
4 0 6 1 16
4 13 18 19 8
4 13 8 19 14
4 8 14 9 19
4 12 17 18 7
4 12 7 18 13
4 7 13 8 18
4 11 16 17 6
4 11 6 17 12
4 6 12 7 17
4 10 15 16 5
4 10 5 16 11
4 5 11 6 16
4 8 23 29 28
4 8 23 24 29
4 8 9 29 24
4 7 22 28 27
4 7 22 23 28
4 7 8 28 23
4 6 21 27 26
4 6 21 22 27
4 6 7 27 22
4 5 20 26 25
4 5 20 21 26
4 5 6 26 21
4 8 3 24 23
4 8 3 9 24
4 3 9 24 4
4 7 2 23 22
4 7 2 8 23
4 2 8 23 3
4 6 1 22 21
4 6 1 7 22
4 1 7 22 2
4 5 0 21 20
4 5 0 6 21
4 0 6 21 1
4 3 18 24 23
4 3 18 19 24
4 3 4 24 19
4 2 17 23 22
4 2 17 18 23
4 2 3 23 18
4 1 16 22 21
4 1 16 17 22
4 1 2 22 17
4 0 15 21 20
4 0 15 16 21
4 0 1 21 16
4 18 38 39 23
4 18 23 39 24
4 18 19 24 39
4 17 37 38 22
4 17 22 38 23
4 17 18 23 38
4 16 36 37 21
4 16 21 37 22
4 16 17 22 37
4 15 35 36 20
4 15 20 36 21
4 15 16 21 36
4 18 33 39 38
4 18 33 34 39
4 18 19 39 34
4 17 32 38 37
4 17 32 33 38
4 17 18 38 33
4 16 31 37 36
4 16 31 32 37
4 16 17 37 32
4 15 30 36 35
4 15 30 31 36
4 15 16 36 31
4 33 18 34 13
4 18 13 19 34
4 13 34 14 19
4 32 17 33 12
4 17 12 18 33
4 12 33 13 18
4 31 16 32 11
4 16 11 17 32
4 11 32 12 17
4 30 15 31 10
4 15 10 16 31
4 10 31 11 16
4 33 13 34 8
4 13 8 14 34
4 8 34 9 14
4 32 12 33 7
4 12 7 13 33
4 7 33 8 13
4 31 11 32 6
4 11 6 12 32
4 6 32 7 12
4 30 10 31 5
4 10 5 11 31
4 5 31 6 11
4 33 8 34 28
4 8 28 29 34
4 8 34 29 9
4 32 7 33 27
4 7 27 28 33
4 7 33 28 8
4 31 6 32 26
4 6 26 27 32
4 6 32 27 7
4 30 5 31 25
4 5 25 26 31
4 5 31 26 6
4 43 48 49 23
4 43 23 49 44
4 23 44 24 49
4 42 47 48 22
4 42 22 48 43
4 22 43 23 48
4 41 46 47 21
4 41 21 47 42
4 21 42 22 47
4 40 45 46 20
4 40 20 46 41
4 20 41 21 46
4 28 23 49 48
4 28 23 29 49
4 23 29 49 24
4 27 22 48 47
4 27 22 28 48
4 22 28 48 23
4 26 21 47 46
4 26 21 27 47
4 21 27 47 22
4 25 20 46 45
4 25 20 26 46
4 20 26 46 21
4 33 28 49 48
4 33 28 34 49
4 28 34 49 29
4 32 27 48 47
4 32 27 33 48
4 27 33 48 28
4 31 26 47 46
4 31 26 32 47
4 26 32 47 27
4 30 25 46 45
4 30 25 31 46
4 25 31 46 26
4 48 53 54 33
4 48 33 54 49
4 33 49 34 54
4 47 52 53 32
4 47 32 53 48
4 32 48 33 53
4 46 51 52 31
4 46 31 52 47
4 31 47 32 52
4 45 50 51 30
4 45 30 51 46
4 30 46 31 51
4 33 53 54 38
4 33 38 54 39
4 33 34 39 54
4 32 52 53 37
4 32 37 53 38
4 32 33 38 53
4 31 51 52 36
4 31 36 52 37
4 31 32 37 52
4 30 50 51 35
4 30 35 51 36
4 30 31 36 51
4 53 58 59 38
4 53 38 59 54
4 38 54 39 59
4 52 57 58 37
4 52 37 58 53
4 37 53 38 58
4 51 56 57 36
4 51 36 57 52
4 36 52 37 57
4 50 55 56 35
4 50 35 56 51
4 35 51 36 56
4 38 58 59 23
4 38 23 59 39
4 23 39 24 59
4 37 57 58 22
4 37 22 58 38
4 22 38 23 58
4 36 56 57 21
4 36 21 57 37
4 21 37 22 57
4 35 55 56 20
4 35 20 56 36
4 20 36 21 56
4 58 43 59 23
4 43 23 44 59
4 23 59 24 44
4 57 42 58 22
4 42 22 43 58
4 22 58 23 43
4 56 41 57 21
4 41 21 42 57
4 21 57 22 42
4 55 40 56 20
4 40 20 41 56
4 20 56 21 41
3 9 4 19
3 14 9 19
3 9 29 24
3 9 24 4
3 4 24 19
3 19 24 39
3 19 39 34
3 34 14 19
3 34 9 14
3 34 29 9
3 44 24 49
3 29 49 24
3 34 49 29
3 49 34 54
3 34 39 54
3 54 39 59
3 39 24 59
3 59 24 44
3 0 5 15
3 5 10 15
3 25 5 20
3 20 5 0
3 20 0 15
3 20 15 35
3 35 15 30
3 10 30 15
3 5 30 10
3 25 30 5
3 20 40 45
3 45 25 20
3 45 30 25
3 30 45 50
3 35 30 50
3 35 50 55
3 20 35 55
3 20 55 40
3 3 9 8
3 9 3 4
3 2 8 7
3 8 2 3
3 1 7 6
3 7 1 2
3 0 6 5
3 6 0 1
3 8 14 13
3 14 8 9
3 7 13 12
3 13 7 8
3 6 12 11
3 12 6 7
3 5 11 10
3 11 5 6
3 13 19 18
3 19 13 14
3 12 18 17
3 18 12 13
3 11 17 16
3 17 11 12
3 10 16 15
3 16 10 11
3 18 19 3
3 4 3 19
3 17 18 2
3 3 2 18
3 16 17 1
3 2 1 17
3 15 16 0
3 1 0 16
3 23 29 28
3 29 23 24
3 22 28 27
3 28 22 23
3 21 27 26
3 27 21 22
3 20 26 25
3 26 20 21
3 28 34 33
3 34 28 29
3 27 33 32
3 33 27 28
3 26 32 31
3 32 26 27
3 25 31 30
3 31 25 26
3 33 39 38
3 39 33 34
3 32 38 37
3 38 32 33
3 31 37 36
3 37 31 32
3 30 36 35
3 36 30 31
3 38 39 23
3 24 23 39
3 37 38 22
3 23 22 38
3 36 37 21
3 22 21 37
3 35 36 20
3 21 20 36
3 43 49 48
3 49 43 44
3 42 48 47
3 48 42 43
3 41 47 46
3 47 41 42
3 40 46 45
3 46 40 41
3 48 54 53
3 54 48 49
3 47 53 52
3 53 47 48
3 46 52 51
3 52 46 47
3 45 51 50
3 51 45 46
3 53 59 58
3 59 53 54
3 52 58 57
3 58 52 53
3 51 57 56
3 57 51 52
3 50 56 55
3 56 50 51
3 58 59 43
3 44 43 59
3 57 58 42
3 43 42 58
3 56 57 41
3 42 41 57
3 55 56 40
3 41 40 56

CELL_TYPES 348
10 10 10 10 10 10 10 10 10 10 10 10 10 10 10 10 10 10 10 10 10 10 10 10 10 10 10 10 10 10 10 10 10 10 10 10 10 10 10 10 10 10 10 10 10 10 10 10 10 10 10 10 10 10 10 10 10 10 10 10 10 10 10 10 10 10 10 10 10 10 10 10 10 10 10 10 10 10 10 10 10 10 10 10 10 10 10 10 10 10 10 10 10 10 10 10 10 10 10 10 10 10 10 10 10 10 10 10 10 10 10 10 10 10 10 10 10 10 10 10 10 10 10 10 10 10 10 10 10 10 10 10 10 10 10 10 10 10 10 10 10 10 10 10 10 10 10 10 10 10 10 10 10 10 10 10 10 10 10 10 10 10 10 10 10 10 10 10 10 10 10 10 10 10 10 10 10 10 10 10 10 10 10 10 10 10 10 10 10 10 10 10 10 10 10 10 10 10 10 10 10 10 10 10 10 10 10 10 10 10 10 10 10 10 10 10 5 5 5 5 5 5 5 5 5 5 5 5 5 5 5 5 5 5 5 5 5 5 5 5 5 5 5 5 5 5 5 5 5 5 5 5 5 5 5 5 5 5 5 5 5 5 5 5 5 5 5 5 5 5 5 5 5 5 5 5 5 5 5 5 5 5 5 5 5 5 5 5 5 5 5 5 5 5 5 5 5 5 5 5 5 5 5 5 5 5 5 5 5 5 5 5 5 5 5 5 5 5 5 5 5 5 5 5 5 5 5 5 5 5 5 5 5 5 5 5 5 5 5 5 5 5 5 5 5 5 5 5 
CELL_DATA 348
Scalars  Label int1
LOOKUP_TABLE FreeFempp_table
0
0
0
0
0
0
0
0
0
0
0
0
0
0
0
0
0
0
0
0
0
0
0
0
1
1
1
1
1
1
1
1
1
1
1
1
1
1
1
1
1
1
1
1
1
1
1
1
1
1
1
1
1
1
1
1
1
1
1
1
1
1
1
1
1
1
1
1
1
1
1
1
1
1
1
1
1
1
1
1
1
1
1
1
1
1
1
1
1
1
1
1
1
1
1
1
1
1
1
1
1
1
1
1
1
1
1
1
1
1
1
1
1
1
1
1
1
1
1
1
2
2
2
2
2
2
2
2
2
2
2
2
2
2
2
2
2
2
2
2
2
2
2
2
2
2
2
2
2
2
2
2
2
2
2
2
2
2
2
2
2
2
2
2
2
2
2
2
2
2
2
2
2
2
2
2
2
2
2
2
2
2
2
2
2
2
2
2
2
2
2
2
2
2
2
2
2
2
2
2
2
2
2
2
2
2
2
2
2
2
2
2
2
2
2
2
1
1
1
1
1
1
1
1
1
1
2
2
2
2
2
2
2
2
1
1
1
1
1
1
1
1
1
1
2
2
2
2
2
2
2
2
4
4
4
4
4
4
4
4
4
4
4
4
4
4
4
4
4
4
4
4
4
4
4
4
4
4
4
4
4
4
4
4
3
3
3
3
3
3
3
3
3
3
3
3
3
3
3
3
3
3
3
3
3
3
3
3
3
3
3
3
3
3
3
3
2
2
2
2
2
2
2
2
2
2
2
2
2
2
2
2
2
2
2
2
2
2
2
2
2
2
2
2
2
2
2
2

LOOKUP_TABLE FreeFempp_table 5
1.00000000 0.00000000 0.00000000 1.00000000
1.00000000 1.00000000 0.00000000 1.00000000
1.00000000 0.00000000 1.00000000 1.00000000
0.00000000 1.00000000 0.00000000 1.00000000
0.00000000 1.00000000 1.00000000 1.00000000

FIELD FieldData 2
init 3 348 float
2.06541538e-01 -5.08733392e-01 2.72082716e-01 -2.34675780e-01 -5.67995787e-01 2.81619638e-01 -2.77555756e-17 -7.36654103e-01 2.88636029e-01 2.34675780e-01 -3.56263965e-01 2.38659158e-01 -2.44096979e-01 -4.03980941e-01 2.46885315e-01 -5.55111512e-17 -6.24548435e-01 2.53770739e-01 2.44096979e-01 -2.67686218e-01 2.09971398e-01 -2.45073259e-01 -2.88526028e-01 2.16952786e-01 -5.55111512e-17 -5.32160342e-01 2.23385289e-01 2.45073259e-01 -2.64431030e-01 1.85585201e-01 -2.44879976e-01 -2.55466819e-01 1.91470146e-01 -5.55111512e-17 -4.90955770e-01 1.97288752e-01 2.06541538e-01 -1.90953296e-02 2.74838060e-01 -2.81342436e-02 2.99458265e-01 2.87099421e-01 -2.34675780e-01 -7.65916929e-02 2.95221686e-01 2.34675780e-01 1.33898661e-01 2.39773765e-01 -9.42118932e-03 4.02969211e-01 2.49414563e-01 -2.44096979e-01 8.78840685e-02 2.57074982e-01 2.44096979e-01 2.22464114e-01 2.10104406e-01 -9.76276409e-04 4.68992472e-01 2.17651516e-01 -2.45073259e-01 2.02455461e-01 2.24566221e-01 2.45073259e-01 2.25740954e-01 1.85222462e-01 1.93276632e-04 4.80402321e-01 1.91174090e-01 -2.44879976e-01 2.34339729e-01 1.97238088e-01 -6.02055907e-01 -2.90856183e-01 2.42450520e-01 -4.17044401e-01 -4.50183451e-01 2.43196055e-01 -6.23585939e-01 -3.98876876e-01 2.65449852e-01 -6.14829719e-01 -2.23133504e-01 2.13957578e-01 -4.29108471e-01 -3.98779809e-01 2.16933444e-01 -6.63784266e-01 -2.83947319e-01 2.34419048e-01 -6.16585195e-01 -1.90530181e-01 1.89214274e-01 -4.30794507e-01 -3.74404401e-01 1.93500549e-01 -6.74891472e-01 -2.10101858e-01 2.07274482e-01 -6.16447628e-01 -1.96479186e-01 1.67907655e-01 -4.30670649e-01 -3.80406231e-01 1.72803313e-01 -6.75743878e-01 -1.96014896e-01 1.83814526e-01 -2.34675780e-01 -6.63842082e-01 2.42050037e-01 -4.41217333e-01 -6.12535536e-01 2.64303833e-01 -2.06541538e-01 -7.81193793e-01 2.71320224e-01 -2.44096979e-01 -6.29382432e-01 2.16682836e-01 -4.78772759e-01 -5.14549911e-01 2.34168425e-01 -2.34675780e-01 -7.35117435e-01 2.41053879e-01 -2.45073259e-01 -6.15378082e-01 1.93919420e-01 -4.89170223e-01 -4.51075524e-01 2.07693353e-01 -2.44096979e-01 -6.94709837e-01 2.14125857e-01 -2.44879976e-01 -6.25000477e-01 1.73666373e-01 -4.89953220e-01 -4.40609187e-01 1.84677601e-01 -2.45073259e-01 -6.76098168e-01 1.90496221e-01 2.34675780e-01 -6.63842082e-01 2.42050037e-01 4.41217333e-01 -6.12535536e-01 2.64303833e-01 2.06541538e-01 -7.81193793e-01 2.71320224e-01 2.44096979e-01 -6.29382432e-01 2.16682836e-01 4.78772759e-01 -5.14549911e-01 2.34168425e-01 2.34675780e-01 -7.35117435e-01 2.41053879e-01 2.45073259e-01 -6.15378082e-01 1.93919420e-01 4.89170223e-01 -4.51075524e-01 2.07693353e-01 2.44096979e-01 -6.94709837e-01 2.14125857e-01 2.44879976e-01 -6.25000477e-01 1.73666373e-01 4.89953220e-01 -4.40609187e-01 1.84677601e-01 2.45073259e-01 -6.76098168e-01 1.90496221e-01 6.02055907e-01 -2.90856183e-01 2.42450520e-01 4.17044401e-01 -4.50183451e-01 2.43196055e-01 6.23585939e-01 -3.98876876e-01 2.65449852e-01 6.14829719e-01 -2.23133504e-01 2.13957578e-01 4.29108471e-01 -3.98779809e-01 2.16933444e-01 6.63784266e-01 -2.83947319e-01 2.34419048e-01 6.16585195e-01 -1.90530181e-01 1.89214274e-01 4.30794507e-01 -3.74404401e-01 1.93500549e-01 6.74891472e-01 -2.10101858e-01 2.07274482e-01 6.16447628e-01 -1.96479186e-01 1.67907655e-01 4.30670649e-01 -3.80406231e-01 1.72803313e-01 6.75743878e-01 -1.96014896e-01 1.83814526e-01 6.02055907e-01 8.36326033e-02 2.51766175e-01 4.17044401e-01 3.01683396e-01 2.70243704e-01 6.23585939e-01 -2.14988068e-02 2.83181816e-01 6.14829719e-01 1.49339005e-01 2.17755988e-01 4.29108471e-01 3.48181486e-01 2.30047509e-01 6.63784266e-01 9.05414745e-02 2.43734702e-01 6.16585195e-01 1.81076288e-01 1.89675316e-01 4.30794507e-01 3.69674563e-01 1.97759986e-01 6.74891472e-01 1.62370652e-01 2.11072877e-01 6.16447628e-01 1.75500765e-01 1.66612417e-01 4.30670649e-01 3.63180190e-01 1.71969116e-01 6.75743878e-01 1.75591573e-01 1.84275582e-01 2.34675780e-01 5.77662826e-01 2.71853000e-01 4.41217333e-01 2.54480630e-01 2.84791142e-01 2.06541538e-01 5.73034227e-01 2.97052473e-01 2.44096979e-01 6.07741475e-01 2.30911523e-01 4.78772759e-01 3.50101471e-01 2.44598702e-01 2.34675780e-01 6.19172037e-01 2.54239500e-01 2.45073259e-01 6.18851244e-01 1.98311865e-01 4.89170223e-01 4.11547303e-01 2.11624756e-01 2.44096979e-01 6.58075690e-01 2.19171867e-01 2.44879976e-01 6.08757854e-01 1.72469452e-01 4.89953220e-01 4.21169251e-01 1.84775904e-01 2.45073259e-01 6.75830603e-01 1.90727532e-01 -2.34675780e-01 5.77662826e-01 2.71853000e-01 -2.34675780e-01 6.32296622e-01 2.87515551e-01 -4.41217333e-01 2.56246686e-01 2.95637846e-01 -2.44096979e-01 6.07741475e-01 2.30911523e-01 -2.44096979e-01 6.66889012e-01 2.46013343e-01 -4.78772759e-01 3.51803869e-01 2.53673792e-01 -2.45073259e-01 6.18851244e-01 1.98311865e-01 -2.45073259e-01 6.78915501e-01 2.12190479e-01 -4.89170223e-01 4.12378490e-01 2.19105184e-01 -2.44879976e-01 6.08757854e-01 1.72469452e-01 -2.44879976e-01 6.66866422e-01 1.84842587e-01 -4.89953220e-01 4.20803845e-01 1.90906584e-01 -4.19687271e-01 3.16400439e-01 2.61913925e-01 -6.02055907e-01 9.32887569e-02 2.65120476e-01 -6.23585939e-01 -2.14988068e-02 2.83181816e-01 -4.29818243e-01 3.57733637e-01 2.22879201e-01 -6.14829719e-01 1.55618787e-01 2.28041962e-01 -6.63784266e-01 9.05414745e-02 2.43734702e-01 -4.30863917e-01 3.73638988e-01 1.91680863e-01 -6.16585195e-01 1.83695391e-01 1.97527170e-01 -6.74891472e-01 1.62370652e-01 2.11072877e-01 -4.30656970e-01 3.61479968e-01 1.66845247e-01 -6.16447628e-01 1.74376249e-01 1.72587380e-01 -6.75743878e-01 1.75591573e-01 1.84275582e-01 -1.24557763e-01 -2.46112153e-01 1.53135598e-01 -6.21390976e-02 -3.03005755e-01 1.49566695e-01 -6.21390976e-02 -4.15277809e-01 1.79412350e-01 -1.24911435e-01 -2.48329327e-01 1.37832969e-01 -6.24186657e-02 -3.08465630e-01 1.37017488e-01 -6.24186657e-02 -4.26236272e-01 1.63417712e-01 -1.24992765e-01 -2.48789519e-01 1.24082074e-01 -6.24927692e-02 -3.10727745e-01 1.25300735e-01 -6.24927692e-02 -4.32230622e-01 1.48474678e-01 -1.24998562e-01 -2.47505367e-01 1.11799031e-01 -6.24999963e-02 -3.09746057e-01 1.14446998e-01 -6.24999963e-02 -4.33230311e-01 1.34672359e-01 -3.09569240e-01 -1.99056953e-01 1.82235703e-01 -4.29519206e-01 -2.25564569e-01 2.14682817e-01 -2.44507730e-01 -3.84891838e-01 2.15428352e-01 -3.10632706e-01 -1.90453649e-01 1.61257327e-01 -4.33151394e-01 -2.03534752e-01 1.89541951e-01 -2.47430146e-01 -3.79181057e-01 1.92517817e-01 -3.10783446e-01 -1.86418176e-01 1.42969728e-01 -4.34004694e-01 -1.90480724e-01 1.67612746e-01 -2.48214021e-01 -3.74354929e-01 1.71899021e-01 -3.10775548e-01 -1.87062591e-01 1.27128750e-01 -4.34067667e-01 -1.86931923e-01 1.48664370e-01 -2.48290673e-01 -3.70858967e-01 1.53560027e-01 -3.09569240e-01 1.75431833e-01 1.91551372e-01 -2.47150585e-01 3.81692052e-01 2.34146237e-01 -4.29519206e-01 1.58580363e-01 2.37352774e-01 -3.10632706e-01 1.82018861e-01 1.65055722e-01 -2.48139918e-01 3.77332389e-01 1.98463574e-01 -4.33151394e-01 1.75217539e-01 2.03626335e-01 -3.10783446e-01 1.85188293e-01 1.43430769e-01 -2.48283446e-01 3.73688430e-01 1.70079350e-01 -4.34004694e-01 1.83744848e-01 1.75925642e-01 -3.10775548e-01 1.84917361e-01 1.25833511e-01 -2.48276979e-01 3.71027201e-01 1.47601962e-01 -4.34067667e-01 1.83923498e-01 1.53344095e-01 -6.24186657e-02 3.36494297e-01 1.89724952e-01 -1.24557763e-01 2.64355928e-01 1.87240213e-01 -6.21390976e-02 4.70616132e-01 2.29835063e-01 -6.24927692e-02 3.20379496e-01 1.54156163e-01 -1.24911435e-01 2.54371554e-01 1.55465513e-01 -6.24186657e-02 4.49685067e-01 1.88873366e-01 -6.24999963e-02 3.12564909e-01 1.28060579e-01 -1.24992765e-01 2.49470264e-01 1.31251499e-01 -6.24927692e-02 4.37970430e-01 1.57900065e-01 -6.24985695e-02 3.12528521e-01 1.08829372e-01 -1.24998562e-01 2.49276787e-01 1.12729274e-01 -6.24999963e-02 4.35386628e-01 1.34497717e-01 1.85011476e-01 3.24703723e-01 2.13842303e-01 3.67380112e-01 2.28081837e-01 2.38930583e-01 1.82368621e-01 4.46132630e-01 2.57408082e-01 1.85721263e-01 3.16850543e-01 1.75272480e-01 3.70732754e-01 2.39052013e-01 2.00699180e-01 1.85011476e-01 4.37894493e-01 2.12990716e-01 1.85790673e-01 3.12466770e-01 1.46624476e-01 3.71511936e-01 2.45843172e-01 1.70931712e-01 1.85721263e-01 4.34441477e-01 1.79016382e-01 1.85776994e-01 3.10958952e-01 1.25241116e-01 3.71567667e-01 2.47609064e-01 1.47704914e-01 1.85790673e-01 4.35288519e-01 1.53061613e-01 3.09569240e-01 4.89420295e-02 1.69669643e-01 2.47150585e-01 1.26075521e-01 1.89475819e-01 4.29519206e-01 2.94536501e-02 2.14564085e-01 3.10632706e-01 5.77025525e-02 1.44791782e-01 2.48139918e-01 1.26526281e-01 1.56317890e-01 4.33151394e-01 4.87277359e-02 1.81744590e-01 3.10783446e-01 6.18682876e-02 1.24969833e-01 2.48283446e-01 1.26052126e-01 1.31354451e-01 4.34004694e-01 5.94285317e-02 1.55661702e-01 3.10775548e-01 6.11635335e-02 1.09111845e-01 2.48276979e-01 1.23953380e-01 1.12419352e-01 4.34067667e-01 6.06034994e-02 1.34883150e-01 3.09569240e-01 -1.99056953e-01 1.82235703e-01 4.29519206e-01 -2.25564569e-01 2.14682817e-01 2.44507730e-01 -3.84891838e-01 2.15428352e-01 3.10632706e-01 -1.90453649e-01 1.61257327e-01 4.33151394e-01 -2.03534752e-01 1.89541951e-01 2.47430146e-01 -3.79181057e-01 1.92517817e-01 3.10783446e-01 -1.86418176e-01 1.42969728e-01 4.34004694e-01 -1.90480724e-01 1.67612746e-01 2.48214021e-01 -3.74354929e-01 1.71899021e-01 3.10775548e-01 -1.87062591e-01 1.27128750e-01 4.34067667e-01 -1.86931923e-01 1.48664370e-01 2.48290673e-01 -3.70858967e-01 1.53560027e-01 1.24557763e-01 -2.46112153e-01 1.53135598e-01 6.21390976e-02 -3.03005755e-01 1.49566695e-01 6.21390976e-02 -4.15277809e-01 1.79412350e-01 1.24911435e-01 -2.48329327e-01 1.37832969e-01 6.24186657e-02 -3.08465630e-01 1.37017488e-01 6.24186657e-02 -4.26236272e-01 1.63417712e-01 1.24992765e-01 -2.48789519e-01 1.24082074e-01 6.24927692e-02 -3.10727745e-01 1.25300735e-01 6.24927692e-02 -4.32230622e-01 1.48474678e-01 1.24998562e-01 -2.47505367e-01 1.11799031e-01 6.24999963e-02 -3.09746057e-01 1.14446998e-01 6.24999963e-02 -4.33230311e-01 1.34672359e-01 -2.77555756e-17 -7.36654103e-01 2.88636029e-01 -2.34675780e-01 -7.65916929e-02 2.95221686e-01 -6.23585939e-01 -3.98876876e-01 2.65449852e-01 -2.06541538e-01 -7.81193793e-01 2.71320224e-01 2.06541538e-01 -7.81193793e-01 2.71320224e-01 6.23585939e-01 -3.98876876e-01 2.65449852e-01 6.23585939e-01 -2.14988068e-02 2.83181816e-01 2.06541538e-01 5.73034227e-01 2.97052473e-01 -4.41217333e-01 2.56246686e-01 2.95637846e-01 -6.23585939e-01 -2.14988068e-02 2.83181816e-01 -6.21390976e-02 -4.15277809e-01 1.79412350e-01 -2.44507730e-01 -3.84891838e-01 2.15428352e-01 -4.29519206e-01 1.58580363e-01 2.37352774e-01 -6.21390976e-02 4.70616132e-01 2.29835063e-01 1.82368621e-01 4.46132630e-01 2.57408082e-01 4.29519206e-01 2.94536501e-02 2.14564085e-01 2.44507730e-01 -3.84891838e-01 2.15428352e-01 6.21390976e-02 -4.15277809e-01 1.79412350e-01 2.45073259e-01 -2.64431030e-01 1.85585201e-01 2.45073259e-01 2.25740954e-01 1.85222462e-01 -6.16447628e-01 -1.96479186e-01 1.67907655e-01 -2.44879976e-01 -6.25000477e-01 1.73666373e-01 2.44879976e-01 -6.25000477e-01 1.73666373e-01 6.16447628e-01 -1.96479186e-01 1.67907655e-01 6.16447628e-01 1.75500765e-01 1.66612417e-01 2.44879976e-01 6.08757854e-01 1.72469452e-01 -2.44879976e-01 6.08757854e-01 1.72469452e-01 -4.30656970e-01 3.61479968e-01 1.66845247e-01 -1.24998562e-01 -2.47505367e-01 1.11799031e-01 -3.10775548e-01 -1.87062591e-01 1.27128750e-01 -3.10775548e-01 1.84917361e-01 1.25833511e-01 -6.24985695e-02 3.12528521e-01 1.08829372e-01 1.85776994e-01 3.10958952e-01 1.25241116e-01 3.10775548e-01 6.11635335e-02 1.09111845e-01 3.10775548e-01 -1.87062591e-01 1.27128750e-01 1.24998562e-01 -2.47505367e-01 1.11799031e-01 -2.34675780e-01 -5.67995787e-01 2.81619638e-01 -2.77555756e-17 -7.36654103e-01 2.88636029e-01 -2.44096979e-01 -4.03980941e-01 2.46885315e-01 -5.55111512e-17 -6.24548435e-01 2.53770739e-01 -2.45073259e-01 -2.88526028e-01 2.16952786e-01 -5.55111512e-17 -5.32160342e-01 2.23385289e-01 -2.44879976e-01 -2.55466819e-01 1.91470146e-01 -5.55111512e-17 -4.90955770e-01 1.97288752e-01 -2.81342436e-02 2.99458265e-01 2.87099421e-01 -2.34675780e-01 -7.65916929e-02 2.95221686e-01 -9.42118932e-03 4.02969211e-01 2.49414563e-01 -2.44096979e-01 8.78840685e-02 2.57074982e-01 -9.76276409e-04 4.68992472e-01 2.17651516e-01 -2.45073259e-01 2.02455461e-01 2.24566221e-01 1.93276632e-04 4.80402321e-01 1.91174090e-01 -2.44879976e-01 2.34339729e-01 1.97238088e-01 2.06541538e-01 -1.90953296e-02 2.74838060e-01 -2.81342436e-02 2.99458265e-01 2.87099421e-01 2.34675780e-01 1.33898661e-01 2.39773765e-01 -9.42118932e-03 4.02969211e-01 2.49414563e-01 2.44096979e-01 2.22464114e-01 2.10104406e-01 -9.76276409e-04 4.68992472e-01 2.17651516e-01 2.45073259e-01 2.25740954e-01 1.85222462e-01 1.93276632e-04 4.80402321e-01 1.91174090e-01 2.06541538e-01 -5.08733392e-01 2.72082716e-01 -2.77555756e-17 -7.36654103e-01 2.88636029e-01 2.34675780e-01 -3.56263965e-01 2.38659158e-01 -5.55111512e-17 -6.24548435e-01 2.53770739e-01 2.44096979e-01 -2.67686218e-01 2.09971398e-01 -5.55111512e-17 -5.32160342e-01 2.23385289e-01 2.45073259e-01 -2.64431030e-01 1.85585201e-01 -5.55111512e-17 -4.90955770e-01 1.97288752e-01 -6.02055907e-01 -2.90856183e-01 2.42450520e-01 -4.17044401e-01 -4.50183451e-01 2.43196055e-01 -6.14829719e-01 -2.23133504e-01 2.13957578e-01 -4.29108471e-01 -3.98779809e-01 2.16933444e-01 -6.16585195e-01 -1.90530181e-01 1.89214274e-01 -4.30794507e-01 -3.74404401e-01 1.93500549e-01 -6.16447628e-01 -1.96479186e-01 1.67907655e-01 -4.30670649e-01 -3.80406231e-01 1.72803313e-01 -4.19687271e-01 3.16400439e-01 2.61913925e-01 -6.02055907e-01 9.32887569e-02 2.65120476e-01 -4.29818243e-01 3.57733637e-01 2.22879201e-01 -6.14829719e-01 1.55618787e-01 2.28041962e-01 -4.30863917e-01 3.73638988e-01 1.91680863e-01 -6.16585195e-01 1.83695391e-01 1.97527170e-01 -4.30656970e-01 3.61479968e-01 1.66845247e-01 -6.16447628e-01 1.74376249e-01 1.72587380e-01 6.02055907e-01 8.36326033e-02 2.51766175e-01 4.17044401e-01 3.01683396e-01 2.70243704e-01 6.14829719e-01 1.49339005e-01 2.17755988e-01 4.29108471e-01 3.48181486e-01 2.30047509e-01 6.16585195e-01 1.81076288e-01 1.89675316e-01 4.30794507e-01 3.69674563e-01 1.97759986e-01 6.16447628e-01 1.75500765e-01 1.66612417e-01 4.30670649e-01 3.63180190e-01 1.71969116e-01 6.02055907e-01 -2.90856183e-01 2.42450520e-01 4.17044401e-01 -4.50183451e-01 2.43196055e-01 6.14829719e-01 -2.23133504e-01 2.13957578e-01 4.29108471e-01 -3.98779809e-01 2.16933444e-01 6.16585195e-01 -1.90530181e-01 1.89214274e-01 4.30794507e-01 -3.74404401e-01 1.93500549e-01 6.16447628e-01 -1.96479186e-01 1.67907655e-01 4.30670649e-01 -3.80406231e-01 1.72803313e-01 -1.24557763e-01 -2.46112153e-01 1.53135598e-01 -6.21390976e-02 -3.03005755e-01 1.49566695e-01 -1.24911435e-01 -2.48329327e-01 1.37832969e-01 -6.24186657e-02 -3.08465630e-01 1.37017488e-01 -1.24992765e-01 -2.48789519e-01 1.24082074e-01 -6.24927692e-02 -3.10727745e-01 1.25300735e-01 -1.24998562e-01 -2.47505367e-01 1.11799031e-01 -6.24999963e-02 -3.09746057e-01 1.14446998e-01 -6.24186657e-02 3.36494297e-01 1.89724952e-01 -1.24557763e-01 2.64355928e-01 1.87240213e-01 -6.24927692e-02 3.20379496e-01 1.54156163e-01 -1.24911435e-01 2.54371554e-01 1.55465513e-01 -6.24999963e-02 3.12564909e-01 1.28060579e-01 -1.24992765e-01 2.49470264e-01 1.31251499e-01 -6.24985695e-02 3.12528521e-01 1.08829372e-01 -1.24998562e-01 2.49276787e-01 1.12729274e-01 3.09569240e-01 4.89420295e-02 1.69669643e-01 2.47150585e-01 1.26075521e-01 1.89475819e-01 3.10632706e-01 5.77025525e-02 1.44791782e-01 2.48139918e-01 1.26526281e-01 1.56317890e-01 3.10783446e-01 6.18682876e-02 1.24969833e-01 2.48283446e-01 1.26052126e-01 1.31354451e-01 3.10775548e-01 6.11635335e-02 1.09111845e-01 2.48276979e-01 1.23953380e-01 1.12419352e-01 1.24557763e-01 -2.46112153e-01 1.53135598e-01 6.21390976e-02 -3.03005755e-01 1.49566695e-01 1.24911435e-01 -2.48329327e-01 1.37832969e-01 6.24186657e-02 -3.08465630e-01 1.37017488e-01 1.24992765e-01 -2.48789519e-01 1.24082074e-01 6.24927692e-02 -3.10727745e-01 1.25300735e-01 1.24998562e-01 -2.47505367e-01 1.11799031e-01 6.24999963e-02 -3.09746057e-01 1.14446998e-01 
scalaire2 1 348 float
0.00000000e+00 0.00000000e+00 0.00000000e+00 0.00000000e+00 0.00000000e+00 0.00000000e+00 0.00000000e+00 0.00000000e+00 0.00000000e+00 0.00000000e+00 0.00000000e+00 0.00000000e+00 0.00000000e+00 0.00000000e+00 0.00000000e+00 0.00000000e+00 0.00000000e+00 0.00000000e+00 0.00000000e+00 0.00000000e+00 0.00000000e+00 0.00000000e+00 0.00000000e+00 0.00000000e+00 0.00000000e+00 0.00000000e+00 0.00000000e+00 0.00000000e+00 0.00000000e+00 0.00000000e+00 0.00000000e+00 0.00000000e+00 0.00000000e+00 0.00000000e+00 0.00000000e+00 0.00000000e+00 0.00000000e+00 0.00000000e+00 0.00000000e+00 0.00000000e+00 0.00000000e+00 0.00000000e+00 0.00000000e+00 0.00000000e+00 0.00000000e+00 0.00000000e+00 0.00000000e+00 0.00000000e+00 0.00000000e+00 0.00000000e+00 0.00000000e+00 0.00000000e+00 0.00000000e+00 0.00000000e+00 0.00000000e+00 0.00000000e+00 0.00000000e+00 0.00000000e+00 0.00000000e+00 0.00000000e+00 0.00000000e+00 0.00000000e+00 0.00000000e+00 0.00000000e+00 0.00000000e+00 0.00000000e+00 0.00000000e+00 0.00000000e+00 0.00000000e+00 0.00000000e+00 0.00000000e+00 0.00000000e+00 0.00000000e+00 0.00000000e+00 0.00000000e+00 0.00000000e+00 0.00000000e+00 0.00000000e+00 0.00000000e+00 0.00000000e+00 0.00000000e+00 0.00000000e+00 0.00000000e+00 0.00000000e+00 0.00000000e+00 0.00000000e+00 0.00000000e+00 0.00000000e+00 0.00000000e+00 0.00000000e+00 0.00000000e+00 0.00000000e+00 0.00000000e+00 0.00000000e+00 0.00000000e+00 0.00000000e+00 0.00000000e+00 0.00000000e+00 0.00000000e+00 0.00000000e+00 0.00000000e+00 0.00000000e+00 0.00000000e+00 0.00000000e+00 0.00000000e+00 0.00000000e+00 0.00000000e+00 0.00000000e+00 0.00000000e+00 0.00000000e+00 0.00000000e+00 0.00000000e+00 0.00000000e+00 0.00000000e+00 0.00000000e+00 0.00000000e+00 0.00000000e+00 0.00000000e+00 0.00000000e+00 0.00000000e+00 0.00000000e+00 0.00000000e+00 0.00000000e+00 0.00000000e+00 0.00000000e+00 0.00000000e+00 0.00000000e+00 0.00000000e+00 0.00000000e+00 0.00000000e+00 0.00000000e+00 0.00000000e+00 0.00000000e+00 0.00000000e+00 0.00000000e+00 0.00000000e+00 0.00000000e+00 0.00000000e+00 0.00000000e+00 0.00000000e+00 0.00000000e+00 0.00000000e+00 0.00000000e+00 0.00000000e+00 0.00000000e+00 0.00000000e+00 0.00000000e+00 0.00000000e+00 0.00000000e+00 0.00000000e+00 0.00000000e+00 0.00000000e+00 0.00000000e+00 0.00000000e+00 0.00000000e+00 0.00000000e+00 0.00000000e+00 0.00000000e+00 0.00000000e+00 0.00000000e+00 0.00000000e+00 0.00000000e+00 0.00000000e+00 0.00000000e+00 0.00000000e+00 0.00000000e+00 0.00000000e+00 0.00000000e+00 0.00000000e+00 0.00000000e+00 0.00000000e+00 0.00000000e+00 0.00000000e+00 0.00000000e+00 0.00000000e+00 0.00000000e+00 0.00000000e+00 0.00000000e+00 0.00000000e+00 0.00000000e+00 0.00000000e+00 0.00000000e+00 0.00000000e+00 0.00000000e+00 0.00000000e+00 0.00000000e+00 0.00000000e+00 0.00000000e+00 0.00000000e+00 0.00000000e+00 0.00000000e+00 0.00000000e+00 0.00000000e+00 0.00000000e+00 0.00000000e+00 0.00000000e+00 0.00000000e+00 0.00000000e+00 0.00000000e+00 0.00000000e+00 0.00000000e+00 0.00000000e+00 0.00000000e+00 0.00000000e+00 0.00000000e+00 0.00000000e+00 0.00000000e+00 0.00000000e+00 0.00000000e+00 0.00000000e+00 0.00000000e+00 0.00000000e+00 0.00000000e+00 0.00000000e+00 0.00000000e+00 0.00000000e+00 0.00000000e+00 0.00000000e+00 0.00000000e+00 0.00000000e+00 0.00000000e+00 0.00000000e+00 0.00000000e+00 0.00000000e+00 0.00000000e+00 0.00000000e+00 0.00000000e+00 0.00000000e+00 0.00000000e+00 0.00000000e+00 0.00000000e+00 0.00000000e+00 0.00000000e+00 0.00000000e+00 0.00000000e+00 0.00000000e+00 0.00000000e+00 0.00000000e+00 0.00000000e+00 0.00000000e+00 0.00000000e+00 0.00000000e+00 0.00000000e+00 0.00000000e+00 0.00000000e+00 0.00000000e+00 0.00000000e+00 0.00000000e+00 0.00000000e+00 0.00000000e+00 0.00000000e+00 0.00000000e+00 0.00000000e+00 0.00000000e+00 0.00000000e+00 0.00000000e+00 0.00000000e+00 0.00000000e+00 0.00000000e+00 0.00000000e+00 0.00000000e+00 0.00000000e+00 0.00000000e+00 0.00000000e+00 0.00000000e+00 0.00000000e+00 0.00000000e+00 0.00000000e+00 0.00000000e+00 0.00000000e+00 0.00000000e+00 0.00000000e+00 0.00000000e+00 0.00000000e+00 0.00000000e+00 0.00000000e+00 0.00000000e+00 0.00000000e+00 0.00000000e+00 0.00000000e+00 0.00000000e+00 0.00000000e+00 0.00000000e+00 0.00000000e+00 0.00000000e+00 0.00000000e+00 0.00000000e+00 0.00000000e+00 0.00000000e+00 0.00000000e+00 0.00000000e+00 0.00000000e+00 0.00000000e+00 0.00000000e+00 0.00000000e+00 0.00000000e+00 0.00000000e+00 0.00000000e+00 0.00000000e+00 0.00000000e+00 0.00000000e+00 0.00000000e+00 0.00000000e+00 0.00000000e+00 0.00000000e+00 0.00000000e+00 0.00000000e+00 0.00000000e+00 0.00000000e+00 0.00000000e+00 0.00000000e+00 0.00000000e+00 0.00000000e+00 0.00000000e+00 0.00000000e+00 0.00000000e+00 0.00000000e+00 0.00000000e+00 0.00000000e+00 0.00000000e+00 0.00000000e+00 0.00000000e+00 0.00000000e+00 0.00000000e+00 0.00000000e+00 0.00000000e+00 0.00000000e+00 0.00000000e+00 0.00000000e+00 0.00000000e+00 0.00000000e+00 0.00000000e+00 0.00000000e+00 0.00000000e+00 0.00000000e+00 0.00000000e+00 0.00000000e+00 0.00000000e+00 0.00000000e+00 0.00000000e+00 0.00000000e+00 0.00000000e+00 0.00000000e+00 0.00000000e+00 0.00000000e+00 0.00000000e+00 0.00000000e+00 0.00000000e+00 
