# vtk DataFile Version 2.0
Curve_init.vtk, Created by Freefem++ 
ASCII
DATASET UNSTRUCTURED_GRID
POINTS 60 float
0.10370973 0.00000000 2.11867261
0.10023193 0.00000000 1.97031367
0.10834350 0.00000000 1.82213581
0.12799494 0.00000000 1.67504299
0.15906639 0.00000000 1.52993250
0.00390498 0.10000000 2.12491870
0.00024414 0.10000000 1.96875131
0.00878263 0.10000000 1.81277454
0.02946837 0.10000000 1.65793991
0.06217516 0.10000000 1.50519204
-0.09589978 0.00000000 2.13116455
-0.09974366 0.00000000 1.96718884
-0.09077824 0.00000000 1.80341327
-0.06905822 0.00000000 1.64083695
-0.03471608 0.00000000 1.48045170
0.00390498 -0.10000000 2.12491870
0.00024414 -0.10000000 1.96875131
0.00878263 -0.10000000 1.81277454
0.02946837 -0.10000000 1.65793991
0.06217516 -0.10000000 1.50519204
0.40312397 0.00000000 2.09993482
0.40019530 0.00000000 1.97500098
0.40702611 0.00000000 1.85021961
0.42357469 0.00000000 1.72635198
0.44974011 0.00000000 1.60415363
0.00390498 0.40000001 2.12491870
0.00024414 0.40000001 1.96875131
0.00878263 0.40000001 1.81277454
0.02946837 0.40000001 1.65793991
0.06217516 0.40000001 1.50519204
-0.39531404 0.00000000 2.14990234
-0.39970705 0.00000000 1.96250153
-0.38946086 0.00000000 1.77532947
-0.36463797 0.00000000 1.58952796
-0.32538980 0.00000000 1.40623045
0.00390498 -0.40000001 2.12491870
0.00024414 -0.40000001 1.96875131
0.00878263 -0.40000001 1.81277454
0.02946837 -0.40000001 1.65793991
0.06217516 -0.40000001 1.50519204
1.00195253 0.00000000 2.06245923
1.00012207 0.00000000 1.98437560
1.00439131 0.00000000 1.90638721
1.01473415 0.00000000 1.82896996
1.03108764 0.00000000 1.75259602
0.00390498 1.00000000 2.12491870
0.00024414 1.00000000 1.96875131
0.00878263 1.00000000 1.81277454
0.02946837 1.00000000 1.65793991
0.06217516 1.00000000 1.50519204
-0.99414253 0.00000000 2.18737793
-0.99963379 0.00000000 1.95312691
-0.98682606 0.00000000 1.71916175
-0.95579743 0.00000000 1.48690999
-0.90673727 0.00000000 1.25778818
0.00390498 -1.00000000 2.12491870
0.00024414 -1.00000000 1.96875131
0.00878263 -1.00000000 1.81277454
0.02946837 -1.00000000 1.65793991
0.06217516 -1.00000000 1.50519204

CELLS 348 1608
4 8 18 19 3
4 8 3 19 9
4 3 9 4 19
4 7 17 18 2
4 7 2 18 8
4 2 8 3 18
4 6 16 17 1
4 6 1 17 7
4 1 7 2 17
4 5 15 16 0
4 5 0 16 6
4 0 6 1 16
4 13 18 19 8
4 13 8 19 14
4 8 14 9 19
4 12 17 18 7
4 12 7 18 13
4 7 13 8 18
4 11 16 17 6
4 11 6 17 12
4 6 12 7 17
4 10 15 16 5
4 10 5 16 11
4 5 11 6 16
4 8 23 29 28
4 8 23 24 29
4 8 9 29 24
4 7 22 28 27
4 7 22 23 28
4 7 8 28 23
4 6 21 27 26
4 6 21 22 27
4 6 7 27 22
4 5 20 26 25
4 5 20 21 26
4 5 6 26 21
4 8 3 24 23
4 8 3 9 24
4 3 9 24 4
4 7 2 23 22
4 7 2 8 23
4 2 8 23 3
4 6 1 22 21
4 6 1 7 22
4 1 7 22 2
4 5 0 21 20
4 5 0 6 21
4 0 6 21 1
4 3 18 24 23
4 3 18 19 24
4 3 4 24 19
4 2 17 23 22
4 2 17 18 23
4 2 3 23 18
4 1 16 22 21
4 1 16 17 22
4 1 2 22 17
4 0 15 21 20
4 0 15 16 21
4 0 1 21 16
4 18 38 39 23
4 18 23 39 24
4 18 19 24 39
4 17 37 38 22
4 17 22 38 23
4 17 18 23 38
4 16 36 37 21
4 16 21 37 22
4 16 17 22 37
4 15 35 36 20
4 15 20 36 21
4 15 16 21 36
4 18 33 39 38
4 18 33 34 39
4 18 19 39 34
4 17 32 38 37
4 17 32 33 38
4 17 18 38 33
4 16 31 37 36
4 16 31 32 37
4 16 17 37 32
4 15 30 36 35
4 15 30 31 36
4 15 16 36 31
4 33 18 34 13
4 18 13 19 34
4 13 34 14 19
4 32 17 33 12
4 17 12 18 33
4 12 33 13 18
4 31 16 32 11
4 16 11 17 32
4 11 32 12 17
4 30 15 31 10
4 15 10 16 31
4 10 31 11 16
4 33 13 34 8
4 13 8 14 34
4 8 34 9 14
4 32 12 33 7
4 12 7 13 33
4 7 33 8 13
4 31 11 32 6
4 11 6 12 32
4 6 32 7 12
4 30 10 31 5
4 10 5 11 31
4 5 31 6 11
4 33 8 34 28
4 8 28 29 34
4 8 34 29 9
4 32 7 33 27
4 7 27 28 33
4 7 33 28 8
4 31 6 32 26
4 6 26 27 32
4 6 32 27 7
4 30 5 31 25
4 5 25 26 31
4 5 31 26 6
4 43 48 49 23
4 43 23 49 44
4 23 44 24 49
4 42 47 48 22
4 42 22 48 43
4 22 43 23 48
4 41 46 47 21
4 41 21 47 42
4 21 42 22 47
4 40 45 46 20
4 40 20 46 41
4 20 41 21 46
4 28 23 49 48
4 28 23 29 49
4 23 29 49 24
4 27 22 48 47
4 27 22 28 48
4 22 28 48 23
4 26 21 47 46
4 26 21 27 47
4 21 27 47 22
4 25 20 46 45
4 25 20 26 46
4 20 26 46 21
4 33 28 49 48
4 33 28 34 49
4 28 34 49 29
4 32 27 48 47
4 32 27 33 48
4 27 33 48 28
4 31 26 47 46
4 31 26 32 47
4 26 32 47 27
4 30 25 46 45
4 30 25 31 46
4 25 31 46 26
4 48 53 54 33
4 48 33 54 49
4 33 49 34 54
4 47 52 53 32
4 47 32 53 48
4 32 48 33 53
4 46 51 52 31
4 46 31 52 47
4 31 47 32 52
4 45 50 51 30
4 45 30 51 46
4 30 46 31 51
4 33 53 54 38
4 33 38 54 39
4 33 34 39 54
4 32 52 53 37
4 32 37 53 38
4 32 33 38 53
4 31 51 52 36
4 31 36 52 37
4 31 32 37 52
4 30 50 51 35
4 30 35 51 36
4 30 31 36 51
4 53 58 59 38
4 53 38 59 54
4 38 54 39 59
4 52 57 58 37
4 52 37 58 53
4 37 53 38 58
4 51 56 57 36
4 51 36 57 52
4 36 52 37 57
4 50 55 56 35
4 50 35 56 51
4 35 51 36 56
4 38 58 59 23
4 38 23 59 39
4 23 39 24 59
4 37 57 58 22
4 37 22 58 38
4 22 38 23 58
4 36 56 57 21
4 36 21 57 37
4 21 37 22 57
4 35 55 56 20
4 35 20 56 36
4 20 36 21 56
4 58 43 59 23
4 43 23 44 59
4 23 59 24 44
4 57 42 58 22
4 42 22 43 58
4 22 58 23 43
4 56 41 57 21
4 41 21 42 57
4 21 57 22 42
4 55 40 56 20
4 40 20 41 56
4 20 56 21 41
3 9 4 19
3 14 9 19
3 9 29 24
3 9 24 4
3 4 24 19
3 19 24 39
3 19 39 34
3 34 14 19
3 34 9 14
3 34 29 9
3 44 24 49
3 29 49 24
3 34 49 29
3 49 34 54
3 34 39 54
3 54 39 59
3 39 24 59
3 59 24 44
3 0 5 15
3 5 10 15
3 25 5 20
3 20 5 0
3 20 0 15
3 20 15 35
3 35 15 30
3 10 30 15
3 5 30 10
3 25 30 5
3 20 40 45
3 45 25 20
3 45 30 25
3 30 45 50
3 35 30 50
3 35 50 55
3 20 35 55
3 20 55 40
3 3 9 8
3 9 3 4
3 2 8 7
3 8 2 3
3 1 7 6
3 7 1 2
3 0 6 5
3 6 0 1
3 8 14 13
3 14 8 9
3 7 13 12
3 13 7 8
3 6 12 11
3 12 6 7
3 5 11 10
3 11 5 6
3 13 19 18
3 19 13 14
3 12 18 17
3 18 12 13
3 11 17 16
3 17 11 12
3 10 16 15
3 16 10 11
3 18 19 3
3 4 3 19
3 17 18 2
3 3 2 18
3 16 17 1
3 2 1 17
3 15 16 0
3 1 0 16
3 23 29 28
3 29 23 24
3 22 28 27
3 28 22 23
3 21 27 26
3 27 21 22
3 20 26 25
3 26 20 21
3 28 34 33
3 34 28 29
3 27 33 32
3 33 27 28
3 26 32 31
3 32 26 27
3 25 31 30
3 31 25 26
3 33 39 38
3 39 33 34
3 32 38 37
3 38 32 33
3 31 37 36
3 37 31 32
3 30 36 35
3 36 30 31
3 38 39 23
3 24 23 39
3 37 38 22
3 23 22 38
3 36 37 21
3 22 21 37
3 35 36 20
3 21 20 36
3 43 49 48
3 49 43 44
3 42 48 47
3 48 42 43
3 41 47 46
3 47 41 42
3 40 46 45
3 46 40 41
3 48 54 53
3 54 48 49
3 47 53 52
3 53 47 48
3 46 52 51
3 52 46 47
3 45 51 50
3 51 45 46
3 53 59 58
3 59 53 54
3 52 58 57
3 58 52 53
3 51 57 56
3 57 51 52
3 50 56 55
3 56 50 51
3 58 59 43
3 44 43 59
3 57 58 42
3 43 42 58
3 56 57 41
3 42 41 57
3 55 56 40
3 41 40 56

CELL_TYPES 348
10 10 10 10 10 10 10 10 10 10 10 10 10 10 10 10 10 10 10 10 10 10 10 10 10 10 10 10 10 10 10 10 10 10 10 10 10 10 10 10 10 10 10 10 10 10 10 10 10 10 10 10 10 10 10 10 10 10 10 10 10 10 10 10 10 10 10 10 10 10 10 10 10 10 10 10 10 10 10 10 10 10 10 10 10 10 10 10 10 10 10 10 10 10 10 10 10 10 10 10 10 10 10 10 10 10 10 10 10 10 10 10 10 10 10 10 10 10 10 10 10 10 10 10 10 10 10 10 10 10 10 10 10 10 10 10 10 10 10 10 10 10 10 10 10 10 10 10 10 10 10 10 10 10 10 10 10 10 10 10 10 10 10 10 10 10 10 10 10 10 10 10 10 10 10 10 10 10 10 10 10 10 10 10 10 10 10 10 10 10 10 10 10 10 10 10 10 10 10 10 10 10 10 10 10 10 10 10 10 10 10 10 10 10 10 10 5 5 5 5 5 5 5 5 5 5 5 5 5 5 5 5 5 5 5 5 5 5 5 5 5 5 5 5 5 5 5 5 5 5 5 5 5 5 5 5 5 5 5 5 5 5 5 5 5 5 5 5 5 5 5 5 5 5 5 5 5 5 5 5 5 5 5 5 5 5 5 5 5 5 5 5 5 5 5 5 5 5 5 5 5 5 5 5 5 5 5 5 5 5 5 5 5 5 5 5 5 5 5 5 5 5 5 5 5 5 5 5 5 5 5 5 5 5 5 5 5 5 5 5 5 5 5 5 5 5 5 5 
CELL_DATA 348
Scalars  Label int1
LOOKUP_TABLE FreeFempp_table
0
0
0
0
0
0
0
0
0
0
0
0
0
0
0
0
0
0
0
0
0
0
0
0
1
1
1
1
1
1
1
1
1
1
1
1
1
1
1
1
1
1
1
1
1
1
1
1
1
1
1
1
1
1
1
1
1
1
1
1
1
1
1
1
1
1
1
1
1
1
1
1
1
1
1
1
1
1
1
1
1
1
1
1
1
1
1
1
1
1
1
1
1
1
1
1
1
1
1
1
1
1
1
1
1
1
1
1
1
1
1
1
1
1
1
1
1
1
1
1
2
2
2
2
2
2
2
2
2
2
2
2
2
2
2
2
2
2
2
2
2
2
2
2
2
2
2
2
2
2
2
2
2
2
2
2
2
2
2
2
2
2
2
2
2
2
2
2
2
2
2
2
2
2
2
2
2
2
2
2
2
2
2
2
2
2
2
2
2
2
2
2
2
2
2
2
2
2
2
2
2
2
2
2
2
2
2
2
2
2
2
2
2
2
2
2
1
1
1
1
1
1
1
1
1
1
2
2
2
2
2
2
2
2
1
1
1
1
1
1
1
1
1
1
2
2
2
2
2
2
2
2
4
4
4
4
4
4
4
4
4
4
4
4
4
4
4
4
4
4
4
4
4
4
4
4
4
4
4
4
4
4
4
4
3
3
3
3
3
3
3
3
3
3
3
3
3
3
3
3
3
3
3
3
3
3
3
3
3
3
3
3
3
3
3
3
2
2
2
2
2
2
2
2
2
2
2
2
2
2
2
2
2
2
2
2
2
2
2
2
2
2
2
2
2
2
2
2

LOOKUP_TABLE FreeFempp_table 5
1.00000000 0.00000000 0.00000000 1.00000000
1.00000000 1.00000000 0.00000000 1.00000000
1.00000000 0.00000000 1.00000000 1.00000000
0.00000000 1.00000000 0.00000000 1.00000000
0.00000000 1.00000000 1.00000000 1.00000000

FIELD FieldData 2
init 3 348 float
6.47452101e-02 -4.44608837e-01 2.72082716e-01 -3.97693753e-01 -6.31277025e-01 2.81619638e-01 -2.17358038e-01 -7.36654103e-01 2.88636029e-01 1.48727030e-01 -2.92982757e-01 2.38659158e-01 -3.43641549e-01 -4.61504996e-01 2.46885315e-01 -1.59123376e-01 -6.24548435e-01 2.53770739e-01 1.88099220e-01 -2.10162178e-01 2.09971398e-01 -3.05999190e-01 -3.39289963e-01 2.16952786e-01 -1.17998585e-01 -5.32160342e-01 2.23385289e-01 1.96384117e-01 -2.13667080e-01 1.85585201e-01 -2.91941851e-01 -3.00311774e-01 1.91470146e-01 -9.60084572e-02 -4.90955770e-01 1.97288752e-01 1.96762383e-01 4.50292379e-02 2.74838060e-01 5.89675009e-02 3.00301641e-01 2.87099421e-01 -2.54829854e-01 -1.39872894e-01 2.95221686e-01 2.64234811e-01 1.97179854e-01 2.39773765e-01 9.25762132e-02 4.08726364e-01 2.49414563e-01 -2.19058707e-01 3.03600263e-02 2.57074982e-01 2.89627761e-01 2.79988170e-01 2.10104406e-01 1.02989636e-01 4.75752562e-01 2.17651516e-01 -1.96990237e-01 1.51691541e-01 2.24566221e-01 2.86147028e-01 2.76504874e-01 1.85222462e-01 9.38490182e-02 4.86321300e-01 1.91174090e-01 -1.96048260e-01 1.89494759e-01 1.97238088e-01 -6.88282251e-01 -4.76425767e-01 2.42450520e-01 -5.57242751e-01 -5.78461111e-01 2.43196055e-01 -7.50399113e-01 -5.91279089e-01 2.65449852e-01 -6.73692286e-01 -3.88216257e-01 2.13957578e-01 -5.40122092e-01 -5.13595760e-01 2.16933444e-01 -7.44959772e-01 -4.62044477e-01 2.34419048e-01 -6.61811292e-01 -3.35760623e-01 1.89214274e-01 -5.24479687e-01 -4.75435108e-01 1.93500549e-01 -7.29657233e-01 -3.68656605e-01 2.07274482e-01 -6.58360124e-01 -3.24597925e-01 1.67907655e-01 -5.16173184e-01 -4.69450951e-01 1.72803313e-01 -7.21617520e-01 -3.35823536e-01 1.83814526e-01 -4.29402143e-01 -7.27123320e-01 2.42050037e-01 -6.22558475e-01 -7.39941299e-01 2.64303833e-01 -4.42222774e-01 -8.45318377e-01 2.71320224e-01 -4.08086449e-01 -6.86906457e-01 2.16682836e-01 -6.12924159e-01 -6.35355175e-01 2.34168425e-01 -4.28405970e-01 -7.98398674e-01 2.41053879e-01 -3.88352513e-01 -6.66141987e-01 1.93919420e-01 -5.93530059e-01 -5.59363484e-01 2.07693353e-01 -4.05529469e-01 -7.52233863e-01 2.14125857e-01 -3.75418395e-01 -6.69845462e-01 1.73666373e-01 -5.80862701e-01 -5.36218047e-01 1.84677601e-01 -3.84929329e-01 -7.26862073e-01 1.90496221e-01 3.99494469e-02 -6.00560904e-01 2.42050037e-01 2.59876192e-01 -4.85129744e-01 2.64303833e-01 -2.91396771e-02 -7.17069209e-01 2.71320224e-01 8.01074877e-02 -5.71858406e-01 2.16682836e-01 3.44621390e-01 -3.93744707e-01 2.34168425e-01 4.09456044e-02 -6.71836257e-01 2.41053879e-01 1.01793982e-01 -5.64614117e-01 1.93919420e-01 3.84810388e-01 -3.42787564e-01 2.07693353e-01 8.26644748e-02 -6.37185752e-01 2.14125857e-01 1.14341557e-01 -5.80155551e-01 1.73666373e-01 3.99043739e-01 -3.45000267e-01 1.84677601e-01 1.05217189e-01 -6.25334203e-01 1.90496221e-01 5.15829563e-01 -1.05286606e-01 2.42450520e-01 2.76846081e-01 -3.21905822e-01 2.43196055e-01 4.96772826e-01 -2.06474662e-01 2.65449852e-01 5.55967152e-01 -5.80507629e-02 2.13957578e-01 3.18094820e-01 -2.83963829e-01 2.16933444e-01 5.82608700e-01 -1.05850138e-01 2.34419048e-01 5.71359038e-01 -4.52997237e-02 1.89214274e-01 3.37109327e-01 -2.73373693e-01 1.93500549e-01 6.20125711e-01 -5.15471064e-02 2.07274482e-01 5.74535131e-01 -6.83604404e-02 1.67907655e-01 3.45168084e-01 -2.91361481e-01 1.72803313e-01 6.29870236e-01 -5.62062375e-02 1.83814526e-01 6.31654739e-01 2.69202173e-01 2.51766175e-01 5.26788712e-01 4.29961056e-01 2.70243704e-01 6.30890250e-01 1.70903400e-01 2.83181816e-01 6.56737566e-01 3.14421743e-01 2.17755988e-01 5.34690440e-01 4.62997466e-01 2.30047509e-01 6.98433876e-01 2.68638641e-01 2.43734702e-01 6.59763157e-01 3.26306731e-01 1.89675316e-01 5.26283920e-01 4.70705271e-01 1.97759986e-01 7.20896184e-01 3.20925385e-01 2.11072877e-01 6.52745664e-01 3.03619504e-01 1.66612417e-01 5.11782706e-01 4.52224910e-01 1.71969116e-01 7.18274415e-01 3.15400243e-01 1.84275582e-01 4.21909243e-01 6.40944004e-01 2.71853000e-01 5.26010811e-01 3.81886393e-01 2.84791142e-01 3.88215929e-01 6.37158811e-01 2.97052473e-01 4.12210912e-01 6.65265501e-01 2.30911523e-01 5.75954318e-01 4.70906705e-01 2.44598702e-01 4.04295713e-01 6.82453215e-01 2.54239500e-01 3.92497092e-01 6.69615149e-01 1.98311865e-01 5.87109387e-01 5.19835293e-01 2.11624756e-01 4.00471240e-01 7.15599716e-01 2.19171867e-01 3.70719105e-01 6.53602839e-01 1.72469452e-01 5.77210784e-01 5.16778171e-01 1.84775904e-01 3.84912759e-01 7.26594567e-01 1.90727532e-01 -4.74423394e-02 5.14381647e-01 2.71853000e-01 -3.17797884e-02 5.69015443e-01 2.87515551e-01 -3.45577151e-01 1.28840908e-01 2.95637846e-01 -7.59830549e-02 5.50217450e-01 2.30911523e-01 -6.08812235e-02 6.09364986e-01 2.46013343e-01 -3.72516155e-01 2.30998620e-01 2.53673792e-01 -9.76494029e-02 5.68087280e-01 1.98311865e-01 -8.37707892e-02 6.28151536e-01 2.12190479e-01 -3.83750647e-01 3.04090500e-01 2.19105184e-01 -1.19040854e-01 5.63912928e-01 1.72469452e-01 -1.06667720e-01 6.22021437e-01 1.84842587e-01 -3.96564990e-01 3.25194925e-01 1.90906584e-01 -3.04060847e-01 1.95827305e-01 2.61913925e-01 -5.59102774e-01 -9.22808126e-02 2.65120476e-01 -6.16281629e-01 -2.13901013e-01 2.83181816e-01 -3.21119189e-01 2.49942839e-01 2.22879201e-01 -5.62635839e-01 -9.46395472e-03 2.28041962e-01 -6.29134655e-01 -8.75556991e-02 2.43734702e-01 -3.34297806e-01 2.78675288e-01 1.91680863e-01 -5.65555334e-01 3.84649299e-02 1.97527170e-01 -6.28886819e-01 3.81590659e-03 2.11072877e-01 -3.49899381e-01 2.77560979e-01 1.66845247e-01 -5.74174702e-01 4.62575108e-02 1.72587380e-01 -6.33213401e-01 3.57829258e-02 1.84275582e-01 -2.09512100e-01 -3.17557842e-01 1.53135598e-01 -1.75872624e-01 -3.41136038e-01 1.49566695e-01 -2.05718279e-01 -4.53408122e-01 1.79412350e-01 -2.01489866e-01 -3.10806155e-01 1.37832969e-01 -1.67088062e-01 -3.41781020e-01 1.37017488e-01 -1.93488285e-01 -4.59551632e-01 1.63417712e-01 -1.94538772e-01 -3.03586841e-01 1.24082074e-01 -1.58887058e-01 -3.39889199e-01 1.25300735e-01 -1.82060987e-01 -4.61392075e-01 1.48474678e-01 -1.88592359e-01 -2.95805186e-01 1.11799031e-01 -1.51317388e-01 -3.35381925e-01 1.14446998e-01 -1.71542749e-01 -4.58866179e-01 1.34672359e-01 -3.70397240e-01 -3.27794552e-01 1.82235703e-01 -4.99468386e-01 -3.85983258e-01 2.14682817e-01 -3.68428886e-01 -4.88018602e-01 2.15428352e-01 -3.61460268e-01 -3.03197235e-01 1.61257327e-01 -4.87943619e-01 -3.44408840e-01 1.89541951e-01 -3.54373425e-01 -4.69788373e-01 1.92517817e-01 -3.55044335e-01 -2.85415232e-01 1.42969728e-01 -4.79363024e-01 -3.14108700e-01 1.67612746e-01 -3.42031389e-01 -4.53783154e-01 1.71899021e-01 -3.51004630e-01 -2.74436444e-01 1.27128750e-01 -4.74235207e-01 -2.95841575e-01 1.48664370e-01 -3.32048297e-01 -4.40694571e-01 1.53560027e-01 -2.54572093e-01 4.66942266e-02 1.91551372e-01 -1.15246966e-01 2.86269814e-01 2.34146237e-01 -3.70288908e-01 -1.83830387e-03 2.37352774e-01 -2.60689795e-01 6.92752749e-02 1.65055722e-01 -1.35370508e-01 2.93750256e-01 1.98463574e-01 -3.76887172e-01 3.43434587e-02 2.03626335e-01 -2.66640216e-01 8.61912295e-02 1.43430769e-01 -1.51849508e-01 3.00327241e-01 1.70079350e-01 -3.83107036e-01 6.01168796e-02 1.75925642e-01 -2.72794127e-01 9.75435078e-02 1.25833511e-01 -1.65774480e-01 3.06317329e-01 1.47601962e-01 -3.90049756e-01 7.50138685e-02 1.53344095e-01 9.29946974e-02 3.03178906e-01 1.89724952e-01 -1.22038303e-02 1.92910239e-01 1.87240213e-01 1.27121285e-01 4.32485819e-01 2.29835063e-01 6.22447133e-02 2.91218072e-01 1.54156163e-01 -3.31761912e-02 1.91894725e-01 1.55465513e-01 9.21431035e-02 4.16369706e-01 1.88873366e-01 3.99184562e-02 2.86929041e-01 1.28060579e-01 -4.88020666e-02 1.94672957e-01 1.31251499e-01 6.59886226e-02 4.08808976e-01 1.57900065e-01 2.35781614e-02 2.89864570e-01 1.08829372e-01 -6.06640540e-02 2.00976968e-01 1.12729274e-01 4.63556014e-02 4.09750789e-01 1.34497717e-01 3.37185860e-01 3.81995648e-01 2.13842303e-01 4.68762904e-01 3.50370228e-01 2.38930583e-01 3.63896877e-01 5.11129081e-01 2.57408082e-01 3.09611171e-01 3.67117316e-01 1.75272480e-01 4.58381414e-01 3.46610695e-01 2.00699180e-01 3.36334258e-01 4.95186418e-01 2.12990716e-01 2.88188398e-01 3.56666535e-01 1.46624476e-01 4.46834326e-01 3.40309709e-01 1.70931712e-01 3.13355088e-01 4.84708220e-01 1.79016382e-01 2.71560758e-01 3.50032985e-01 1.25241116e-01 4.35588509e-01 3.30882847e-01 1.47704914e-01 2.94625551e-01 4.79488254e-01 1.53061613e-01 3.42684656e-01 1.77679643e-01 1.69669643e-01 3.34383786e-01 2.21497744e-01 1.89475819e-01 4.65960830e-01 1.89872324e-01 2.14564085e-01 3.40311617e-01 1.70446143e-01 1.44791782e-01 3.18763644e-01 2.10108429e-01 1.56317890e-01 4.67533886e-01 1.89601824e-01 1.81744590e-01 3.36465716e-01 1.60865352e-01 1.24969833e-01 3.05992484e-01 1.99413329e-01 1.31354451e-01 4.64638412e-01 1.83056504e-01 1.55661702e-01 3.32035303e-01 1.48537382e-01 1.09111845e-01 2.95596868e-01 1.88663259e-01 1.12419352e-01 4.59624588e-01 1.69513136e-01 1.34883150e-01 2.48741239e-01 -7.03193471e-02 1.82235703e-01 3.59570056e-01 -6.51459023e-02 2.14682817e-01 1.20586567e-01 -2.81765103e-01 2.15428352e-01 2.59805113e-01 -7.77100474e-02 1.61257327e-01 3.78359199e-01 -6.26606718e-02 1.89541951e-01 1.40486866e-01 -2.88573742e-01 1.92517817e-01 2.66522557e-01 -8.74211192e-02 1.42969728e-01 3.88646394e-01 -6.68527558e-02 1.67612746e-01 1.54396653e-01 -2.94926733e-01 1.71899021e-01 2.70546466e-01 -9.96887386e-02 1.27128750e-01 3.93900096e-01 -7.80222937e-02 1.48664370e-01 1.64533034e-01 -3.01023334e-01 1.53560027e-01 3.96034271e-02 -1.74666479e-01 1.53135598e-01 -5.15944287e-02 -2.64875442e-01 1.49566695e-01 -8.14400837e-02 -3.77147526e-01 1.79412350e-01 4.83330041e-02 -1.85852513e-01 1.37832969e-01 -4.22507338e-02 -2.75150269e-01 1.37017488e-01 -6.86509460e-02 -3.92920882e-01 1.63417712e-01 5.54467477e-02 -1.93992227e-01 1.24082074e-01 -3.39015201e-02 -2.81566322e-01 1.25300735e-01 -5.70754521e-02 -4.03069198e-01 1.48474678e-01 6.14047721e-02 -1.99205533e-01 1.11799031e-01 -2.63173971e-02 -2.84110188e-01 1.14446998e-01 -4.65427674e-02 -4.07594442e-01 1.34672359e-01 -2.17358038e-01 -7.36654103e-01 2.88636029e-01 -2.54829854e-01 -1.39872894e-01 2.95221686e-01 -7.50399113e-01 -5.91279089e-01 2.65449852e-01 -4.42222774e-01 -8.45318377e-01 2.71320224e-01 -2.91396771e-02 -7.17069209e-01 2.71320224e-01 4.96772826e-01 -2.06474662e-01 2.65449852e-01 6.30890250e-01 1.70903400e-01 2.83181816e-01 3.88215929e-01 6.37158811e-01 2.97052473e-01 -3.45577151e-01 1.28840908e-01 2.95637846e-01 -6.16281629e-01 -2.13901013e-01 2.83181816e-01 -2.05718279e-01 -4.53408122e-01 1.79412350e-01 -3.68428886e-01 -4.88018602e-01 2.15428352e-01 -3.70288908e-01 -1.83830387e-03 2.37352774e-01 1.27121285e-01 4.32485819e-01 2.29835063e-01 3.63896877e-01 5.11129081e-01 2.57408082e-01 4.65960830e-01 1.89872324e-01 2.14564085e-01 1.20586567e-01 -2.81765103e-01 2.15428352e-01 -8.14400837e-02 -3.77147526e-01 1.79412350e-01 1.96384117e-01 -2.13667080e-01 1.85585201e-01 2.86147028e-01 2.76504874e-01 1.85222462e-01 -6.58360124e-01 -3.24597925e-01 1.67907655e-01 -3.75418395e-01 -6.69845462e-01 1.73666373e-01 1.14341557e-01 -5.80155551e-01 1.73666373e-01 5.74535131e-01 -6.83604404e-02 1.67907655e-01 6.52745664e-01 3.03619504e-01 1.66612417e-01 3.70719105e-01 6.53602839e-01 1.72469452e-01 -1.19040854e-01 5.63912928e-01 1.72469452e-01 -3.49899381e-01 2.77560979e-01 1.66845247e-01 -1.88592359e-01 -2.95805186e-01 1.11799031e-01 -3.51004630e-01 -2.74436444e-01 1.27128750e-01 -2.72794127e-01 9.75435078e-02 1.25833511e-01 2.35781614e-02 2.89864570e-01 1.08829372e-01 2.71560758e-01 3.50032985e-01 1.25241116e-01 3.32035303e-01 1.48537382e-01 1.09111845e-01 2.70546466e-01 -9.96887386e-02 1.27128750e-01 6.14047721e-02 -1.99205533e-01 1.11799031e-01 -3.97693753e-01 -6.31277025e-01 2.81619638e-01 -2.17358038e-01 -7.36654103e-01 2.88636029e-01 -3.43641549e-01 -4.61504996e-01 2.46885315e-01 -1.59123376e-01 -6.24548435e-01 2.53770739e-01 -3.05999190e-01 -3.39289963e-01 2.16952786e-01 -1.17998585e-01 -5.32160342e-01 2.23385289e-01 -2.91941851e-01 -3.00311774e-01 1.91470146e-01 -9.60084572e-02 -4.90955770e-01 1.97288752e-01 5.89675009e-02 3.00301641e-01 2.87099421e-01 -2.54829854e-01 -1.39872894e-01 2.95221686e-01 9.25762132e-02 4.08726364e-01 2.49414563e-01 -2.19058707e-01 3.03600263e-02 2.57074982e-01 1.02989636e-01 4.75752562e-01 2.17651516e-01 -1.96990237e-01 1.51691541e-01 2.24566221e-01 9.38490182e-02 4.86321300e-01 1.91174090e-01 -1.96048260e-01 1.89494759e-01 1.97238088e-01 1.96762383e-01 4.50292379e-02 2.74838060e-01 5.89675009e-02 3.00301641e-01 2.87099421e-01 2.64234811e-01 1.97179854e-01 2.39773765e-01 9.25762132e-02 4.08726364e-01 2.49414563e-01 2.89627761e-01 2.79988170e-01 2.10104406e-01 1.02989636e-01 4.75752562e-01 2.17651516e-01 2.86147028e-01 2.76504874e-01 1.85222462e-01 9.38490182e-02 4.86321300e-01 1.91174090e-01 6.47452101e-02 -4.44608837e-01 2.72082716e-01 -2.17358038e-01 -7.36654103e-01 2.88636029e-01 1.48727030e-01 -2.92982757e-01 2.38659158e-01 -1.59123376e-01 -6.24548435e-01 2.53770739e-01 1.88099220e-01 -2.10162178e-01 2.09971398e-01 -1.17998585e-01 -5.32160342e-01 2.23385289e-01 1.96384117e-01 -2.13667080e-01 1.85585201e-01 -9.60084572e-02 -4.90955770e-01 1.97288752e-01 -6.88282251e-01 -4.76425767e-01 2.42450520e-01 -5.57242751e-01 -5.78461111e-01 2.43196055e-01 -6.73692286e-01 -3.88216257e-01 2.13957578e-01 -5.40122092e-01 -5.13595760e-01 2.16933444e-01 -6.61811292e-01 -3.35760623e-01 1.89214274e-01 -5.24479687e-01 -4.75435108e-01 1.93500549e-01 -6.58360124e-01 -3.24597925e-01 1.67907655e-01 -5.16173184e-01 -4.69450951e-01 1.72803313e-01 -3.04060847e-01 1.95827305e-01 2.61913925e-01 -5.59102774e-01 -9.22808126e-02 2.65120476e-01 -3.21119189e-01 2.49942839e-01 2.22879201e-01 -5.62635839e-01 -9.46395472e-03 2.28041962e-01 -3.34297806e-01 2.78675288e-01 1.91680863e-01 -5.65555334e-01 3.84649299e-02 1.97527170e-01 -3.49899381e-01 2.77560979e-01 1.66845247e-01 -5.74174702e-01 4.62575108e-02 1.72587380e-01 6.31654739e-01 2.69202173e-01 2.51766175e-01 5.26788712e-01 4.29961056e-01 2.70243704e-01 6.56737566e-01 3.14421743e-01 2.17755988e-01 5.34690440e-01 4.62997466e-01 2.30047509e-01 6.59763157e-01 3.26306731e-01 1.89675316e-01 5.26283920e-01 4.70705271e-01 1.97759986e-01 6.52745664e-01 3.03619504e-01 1.66612417e-01 5.11782706e-01 4.52224910e-01 1.71969116e-01 5.15829563e-01 -1.05286606e-01 2.42450520e-01 2.76846081e-01 -3.21905822e-01 2.43196055e-01 5.55967152e-01 -5.80507629e-02 2.13957578e-01 3.18094820e-01 -2.83963829e-01 2.16933444e-01 5.71359038e-01 -4.52997237e-02 1.89214274e-01 3.37109327e-01 -2.73373693e-01 1.93500549e-01 5.74535131e-01 -6.83604404e-02 1.67907655e-01 3.45168084e-01 -2.91361481e-01 1.72803313e-01 -2.09512100e-01 -3.17557842e-01 1.53135598e-01 -1.75872624e-01 -3.41136038e-01 1.49566695e-01 -2.01489866e-01 -3.10806155e-01 1.37832969e-01 -1.67088062e-01 -3.41781020e-01 1.37017488e-01 -1.94538772e-01 -3.03586841e-01 1.24082074e-01 -1.58887058e-01 -3.39889199e-01 1.25300735e-01 -1.88592359e-01 -2.95805186e-01 1.11799031e-01 -1.51317388e-01 -3.35381925e-01 1.14446998e-01 9.29946974e-02 3.03178906e-01 1.89724952e-01 -1.22038303e-02 1.92910239e-01 1.87240213e-01 6.22447133e-02 2.91218072e-01 1.54156163e-01 -3.31761912e-02 1.91894725e-01 1.55465513e-01 3.99184562e-02 2.86929041e-01 1.28060579e-01 -4.88020666e-02 1.94672957e-01 1.31251499e-01 2.35781614e-02 2.89864570e-01 1.08829372e-01 -6.06640540e-02 2.00976968e-01 1.12729274e-01 3.42684656e-01 1.77679643e-01 1.69669643e-01 3.34383786e-01 2.21497744e-01 1.89475819e-01 3.40311617e-01 1.70446143e-01 1.44791782e-01 3.18763644e-01 2.10108429e-01 1.56317890e-01 3.36465716e-01 1.60865352e-01 1.24969833e-01 3.05992484e-01 1.99413329e-01 1.31354451e-01 3.32035303e-01 1.48537382e-01 1.09111845e-01 2.95596868e-01 1.88663259e-01 1.12419352e-01 3.96034271e-02 -1.74666479e-01 1.53135598e-01 -5.15944287e-02 -2.64875442e-01 1.49566695e-01 4.83330041e-02 -1.85852513e-01 1.37832969e-01 -4.22507338e-02 -2.75150269e-01 1.37017488e-01 5.54467477e-02 -1.93992227e-01 1.24082074e-01 -3.39015201e-02 -2.81566322e-01 1.25300735e-01 6.14047721e-02 -1.99205533e-01 1.11799031e-01 -2.63173971e-02 -2.84110188e-01 1.14446998e-01 
scalaire2 1 348 float
0.00000000e+00 0.00000000e+00 0.00000000e+00 0.00000000e+00 0.00000000e+00 0.00000000e+00 0.00000000e+00 0.00000000e+00 0.00000000e+00 0.00000000e+00 0.00000000e+00 0.00000000e+00 0.00000000e+00 0.00000000e+00 0.00000000e+00 0.00000000e+00 0.00000000e+00 0.00000000e+00 0.00000000e+00 0.00000000e+00 0.00000000e+00 0.00000000e+00 0.00000000e+00 0.00000000e+00 0.00000000e+00 0.00000000e+00 0.00000000e+00 0.00000000e+00 0.00000000e+00 0.00000000e+00 0.00000000e+00 0.00000000e+00 0.00000000e+00 0.00000000e+00 0.00000000e+00 0.00000000e+00 0.00000000e+00 0.00000000e+00 0.00000000e+00 0.00000000e+00 0.00000000e+00 0.00000000e+00 0.00000000e+00 0.00000000e+00 0.00000000e+00 0.00000000e+00 0.00000000e+00 0.00000000e+00 0.00000000e+00 0.00000000e+00 0.00000000e+00 0.00000000e+00 0.00000000e+00 0.00000000e+00 0.00000000e+00 0.00000000e+00 0.00000000e+00 0.00000000e+00 0.00000000e+00 0.00000000e+00 0.00000000e+00 0.00000000e+00 0.00000000e+00 0.00000000e+00 0.00000000e+00 0.00000000e+00 0.00000000e+00 0.00000000e+00 0.00000000e+00 0.00000000e+00 0.00000000e+00 0.00000000e+00 0.00000000e+00 0.00000000e+00 0.00000000e+00 0.00000000e+00 0.00000000e+00 0.00000000e+00 0.00000000e+00 0.00000000e+00 0.00000000e+00 0.00000000e+00 0.00000000e+00 0.00000000e+00 0.00000000e+00 0.00000000e+00 0.00000000e+00 0.00000000e+00 0.00000000e+00 0.00000000e+00 0.00000000e+00 0.00000000e+00 0.00000000e+00 0.00000000e+00 0.00000000e+00 0.00000000e+00 0.00000000e+00 0.00000000e+00 0.00000000e+00 0.00000000e+00 0.00000000e+00 0.00000000e+00 0.00000000e+00 0.00000000e+00 0.00000000e+00 0.00000000e+00 0.00000000e+00 0.00000000e+00 0.00000000e+00 0.00000000e+00 0.00000000e+00 0.00000000e+00 0.00000000e+00 0.00000000e+00 0.00000000e+00 0.00000000e+00 0.00000000e+00 0.00000000e+00 0.00000000e+00 0.00000000e+00 0.00000000e+00 0.00000000e+00 0.00000000e+00 0.00000000e+00 0.00000000e+00 0.00000000e+00 0.00000000e+00 0.00000000e+00 0.00000000e+00 0.00000000e+00 0.00000000e+00 0.00000000e+00 0.00000000e+00 0.00000000e+00 0.00000000e+00 0.00000000e+00 0.00000000e+00 0.00000000e+00 0.00000000e+00 0.00000000e+00 0.00000000e+00 0.00000000e+00 0.00000000e+00 0.00000000e+00 0.00000000e+00 0.00000000e+00 0.00000000e+00 0.00000000e+00 0.00000000e+00 0.00000000e+00 0.00000000e+00 0.00000000e+00 0.00000000e+00 0.00000000e+00 0.00000000e+00 0.00000000e+00 0.00000000e+00 0.00000000e+00 0.00000000e+00 0.00000000e+00 0.00000000e+00 0.00000000e+00 0.00000000e+00 0.00000000e+00 0.00000000e+00 0.00000000e+00 0.00000000e+00 0.00000000e+00 0.00000000e+00 0.00000000e+00 0.00000000e+00 0.00000000e+00 0.00000000e+00 0.00000000e+00 0.00000000e+00 0.00000000e+00 0.00000000e+00 0.00000000e+00 0.00000000e+00 0.00000000e+00 0.00000000e+00 0.00000000e+00 0.00000000e+00 0.00000000e+00 0.00000000e+00 0.00000000e+00 0.00000000e+00 0.00000000e+00 0.00000000e+00 0.00000000e+00 0.00000000e+00 0.00000000e+00 0.00000000e+00 0.00000000e+00 0.00000000e+00 0.00000000e+00 0.00000000e+00 0.00000000e+00 0.00000000e+00 0.00000000e+00 0.00000000e+00 0.00000000e+00 0.00000000e+00 0.00000000e+00 0.00000000e+00 0.00000000e+00 0.00000000e+00 0.00000000e+00 0.00000000e+00 0.00000000e+00 0.00000000e+00 0.00000000e+00 0.00000000e+00 0.00000000e+00 0.00000000e+00 0.00000000e+00 0.00000000e+00 0.00000000e+00 0.00000000e+00 0.00000000e+00 0.00000000e+00 0.00000000e+00 0.00000000e+00 0.00000000e+00 0.00000000e+00 0.00000000e+00 0.00000000e+00 0.00000000e+00 0.00000000e+00 0.00000000e+00 0.00000000e+00 0.00000000e+00 0.00000000e+00 0.00000000e+00 0.00000000e+00 0.00000000e+00 0.00000000e+00 0.00000000e+00 0.00000000e+00 0.00000000e+00 0.00000000e+00 0.00000000e+00 0.00000000e+00 0.00000000e+00 0.00000000e+00 0.00000000e+00 0.00000000e+00 0.00000000e+00 0.00000000e+00 0.00000000e+00 0.00000000e+00 0.00000000e+00 0.00000000e+00 0.00000000e+00 0.00000000e+00 0.00000000e+00 0.00000000e+00 0.00000000e+00 0.00000000e+00 0.00000000e+00 0.00000000e+00 0.00000000e+00 0.00000000e+00 0.00000000e+00 0.00000000e+00 0.00000000e+00 0.00000000e+00 0.00000000e+00 0.00000000e+00 0.00000000e+00 0.00000000e+00 0.00000000e+00 0.00000000e+00 0.00000000e+00 0.00000000e+00 0.00000000e+00 0.00000000e+00 0.00000000e+00 0.00000000e+00 0.00000000e+00 0.00000000e+00 0.00000000e+00 0.00000000e+00 0.00000000e+00 0.00000000e+00 0.00000000e+00 0.00000000e+00 0.00000000e+00 0.00000000e+00 0.00000000e+00 0.00000000e+00 0.00000000e+00 0.00000000e+00 0.00000000e+00 0.00000000e+00 0.00000000e+00 0.00000000e+00 0.00000000e+00 0.00000000e+00 0.00000000e+00 0.00000000e+00 0.00000000e+00 0.00000000e+00 0.00000000e+00 0.00000000e+00 0.00000000e+00 0.00000000e+00 0.00000000e+00 0.00000000e+00 0.00000000e+00 0.00000000e+00 0.00000000e+00 0.00000000e+00 0.00000000e+00 0.00000000e+00 0.00000000e+00 0.00000000e+00 0.00000000e+00 0.00000000e+00 0.00000000e+00 0.00000000e+00 0.00000000e+00 0.00000000e+00 0.00000000e+00 0.00000000e+00 0.00000000e+00 0.00000000e+00 0.00000000e+00 0.00000000e+00 0.00000000e+00 0.00000000e+00 0.00000000e+00 0.00000000e+00 0.00000000e+00 0.00000000e+00 0.00000000e+00 0.00000000e+00 0.00000000e+00 0.00000000e+00 0.00000000e+00 0.00000000e+00 0.00000000e+00 0.00000000e+00 0.00000000e+00 0.00000000e+00 0.00000000e+00 0.00000000e+00 0.00000000e+00 
