# vtk DataFile Version 2.0
Tornado8_4.vtk, Created by Freefem++ 
ASCII
DATASET UNSTRUCTURED_GRID
POINTS 198 float
-0.03535534 0.03535534 -0.12500000
-0.03535534 0.03535534 -0.04687500
-0.03535534 0.03535534 0.03125000
-0.03535534 0.03535534 0.10937500
-0.03535534 0.03535534 0.18750000
-0.03535534 0.03535534 0.26562500
-0.03535534 0.03535534 0.34375000
-0.03535534 0.03535534 0.42187500
-0.03535534 0.03535534 0.50000000
-0.10606602 0.10606602 -0.12500000
-0.10606602 0.10606602 -0.04687500
-0.10606602 0.10606602 0.03125000
-0.10606602 0.10606602 0.10937500
-0.10606602 0.10606602 0.18750000
-0.10606602 0.10606602 0.26562500
-0.10606602 0.10606602 0.34375000
-0.10606602 0.10606602 0.42187500
-0.10606602 0.10606602 0.50000000
0.00000000 0.05000000 -0.12500000
0.00000000 0.05000000 -0.04687500
0.00000000 0.05000000 0.03125000
0.00000000 0.05000000 0.10937500
0.00000000 0.05000000 0.18750000
0.00000000 0.05000000 0.26562500
0.00000000 0.05000000 0.34375000
0.00000000 0.05000000 0.42187500
0.00000000 0.05000000 0.50000000
0.00000000 0.15000001 -0.12500000
0.00000000 0.15000001 -0.04687500
0.00000000 0.15000001 0.03125000
0.00000000 0.15000001 0.10937500
0.00000000 0.15000001 0.18750000
0.00000000 0.15000001 0.26562500
0.00000000 0.15000001 0.34375000
0.00000000 0.15000001 0.42187500
0.00000000 0.15000001 0.50000000
-0.15000001 0.00000000 -0.12500000
-0.15000001 0.00000000 -0.04687500
-0.15000001 0.00000000 0.03125000
-0.15000001 0.00000000 0.10937500
-0.15000001 0.00000000 0.18750000
-0.15000001 0.00000000 0.26562500
-0.15000001 0.00000000 0.34375000
-0.15000001 0.00000000 0.42187500
-0.15000001 0.00000000 0.50000000
-0.05000000 0.00000000 -0.12500000
-0.05000000 0.00000000 -0.04687500
-0.05000000 0.00000000 0.03125000
-0.05000000 0.00000000 0.10937500
-0.05000000 0.00000000 0.18750000
-0.05000000 0.00000000 0.26562500
-0.05000000 0.00000000 0.34375000
-0.05000000 0.00000000 0.42187500
-0.05000000 0.00000000 0.50000000
-0.01178511 0.01178511 -0.12500000
-0.01178511 0.01178511 -0.04687500
-0.01178511 0.01178511 0.03125000
-0.01178511 0.01178511 0.10937500
-0.01178511 0.01178511 0.18750000
-0.01178511 0.01178511 0.26562500
-0.01178511 0.01178511 0.34375000
-0.01178511 0.01178511 0.42187500
-0.01178511 0.01178511 0.50000000
0.03535534 0.03535534 -0.12500000
0.03535534 0.03535534 -0.04687500
0.03535534 0.03535534 0.03125000
0.03535534 0.03535534 0.10937500
0.03535534 0.03535534 0.18750000
0.03535534 0.03535534 0.26562500
0.03535534 0.03535534 0.34375000
0.03535534 0.03535534 0.42187500
0.03535534 0.03535534 0.50000000
-0.50000000 0.00000000 -0.12500000
-0.50000000 0.00000000 -0.04687500
-0.50000000 0.00000000 0.03125000
-0.50000000 0.00000000 0.10937500
-0.50000000 0.00000000 0.18750000
-0.50000000 0.00000000 0.26562500
-0.50000000 0.00000000 0.34375000
-0.50000000 0.00000000 0.42187500
-0.50000000 0.00000000 0.50000000
0.00000000 0.50000000 -0.12500000
0.00000000 0.50000000 -0.04687500
0.00000000 0.50000000 0.03125000
0.00000000 0.50000000 0.10937500
0.00000000 0.50000000 0.18750000
0.00000000 0.50000000 0.26562500
0.00000000 0.50000000 0.34375000
0.00000000 0.50000000 0.42187500
0.00000000 0.50000000 0.50000000
0.10606602 0.10606602 -0.12500000
0.10606602 0.10606602 -0.04687500
0.10606602 0.10606602 0.03125000
0.10606602 0.10606602 0.10937500
0.10606602 0.10606602 0.18750000
0.10606602 0.10606602 0.26562500
0.10606602 0.10606602 0.34375000
0.10606602 0.10606602 0.42187500
0.10606602 0.10606602 0.50000000
-0.10606602 -0.10606602 -0.12500000
-0.10606602 -0.10606602 -0.04687500
-0.10606602 -0.10606602 0.03125000
-0.10606602 -0.10606602 0.10937500
-0.10606602 -0.10606602 0.18750000
-0.10606602 -0.10606602 0.26562500
-0.10606602 -0.10606602 0.34375000
-0.10606602 -0.10606602 0.42187500
-0.10606602 -0.10606602 0.50000000
-0.03535534 -0.03535534 -0.12500000
-0.03535534 -0.03535534 -0.04687500
-0.03535534 -0.03535534 0.03125000
-0.03535534 -0.03535534 0.10937500
-0.03535534 -0.03535534 0.18750000
-0.03535534 -0.03535534 0.26562500
-0.03535534 -0.03535534 0.34375000
-0.03535534 -0.03535534 0.42187500
-0.03535534 -0.03535534 0.50000000
0.01178511 -0.01178511 -0.12500000
0.01178511 -0.01178511 -0.04687500
0.01178511 -0.01178511 0.03125000
0.01178511 -0.01178511 0.10937500
0.01178511 -0.01178511 0.18750000
0.01178511 -0.01178511 0.26562500
0.01178511 -0.01178511 0.34375000
0.01178511 -0.01178511 0.42187500
0.01178511 -0.01178511 0.50000000
0.05000000 0.00000000 -0.12500000
0.05000000 0.00000000 -0.04687500
0.05000000 0.00000000 0.03125000
0.05000000 0.00000000 0.10937500
0.05000000 0.00000000 0.18750000
0.05000000 0.00000000 0.26562500
0.05000000 0.00000000 0.34375000
0.05000000 0.00000000 0.42187500
0.05000000 0.00000000 0.50000000
-0.00000000 -0.50000000 -0.12500000
-0.00000000 -0.50000000 -0.04687500
-0.00000000 -0.50000000 0.03125000
-0.00000000 -0.50000000 0.10937500
-0.00000000 -0.50000000 0.18750000
-0.00000000 -0.50000000 0.26562500
-0.00000000 -0.50000000 0.34375000
-0.00000000 -0.50000000 0.42187500
-0.00000000 -0.50000000 0.50000000
0.50000000 0.00000000 -0.12500000
0.50000000 0.00000000 -0.04687500
0.50000000 0.00000000 0.03125000
0.50000000 0.00000000 0.10937500
0.50000000 0.00000000 0.18750000
0.50000000 0.00000000 0.26562500
0.50000000 0.00000000 0.34375000
0.50000000 0.00000000 0.42187500
0.50000000 0.00000000 0.50000000
-0.00000000 -0.15000001 -0.12500000
-0.00000000 -0.15000001 -0.04687500
-0.00000000 -0.15000001 0.03125000
-0.00000000 -0.15000001 0.10937500
-0.00000000 -0.15000001 0.18750000
-0.00000000 -0.15000001 0.26562500
-0.00000000 -0.15000001 0.34375000
-0.00000000 -0.15000001 0.42187500
-0.00000000 -0.15000001 0.50000000
0.15000001 0.00000000 -0.12500000
0.15000001 0.00000000 -0.04687500
0.15000001 0.00000000 0.03125000
0.15000001 0.00000000 0.10937500
0.15000001 0.00000000 0.18750000
0.15000001 0.00000000 0.26562500
0.15000001 0.00000000 0.34375000
0.15000001 0.00000000 0.42187500
0.15000001 0.00000000 0.50000000
0.03535534 -0.03535534 -0.12500000
0.03535534 -0.03535534 -0.04687500
0.03535534 -0.03535534 0.03125000
0.03535534 -0.03535534 0.10937500
0.03535534 -0.03535534 0.18750000
0.03535534 -0.03535534 0.26562500
0.03535534 -0.03535534 0.34375000
0.03535534 -0.03535534 0.42187500
0.03535534 -0.03535534 0.50000000
-0.00000000 -0.05000000 -0.12500000
-0.00000000 -0.05000000 -0.04687500
-0.00000000 -0.05000000 0.03125000
-0.00000000 -0.05000000 0.10937500
-0.00000000 -0.05000000 0.18750000
-0.00000000 -0.05000000 0.26562500
-0.00000000 -0.05000000 0.34375000
-0.00000000 -0.05000000 0.42187500
-0.00000000 -0.05000000 0.50000000
0.10606602 -0.10606602 -0.12500000
0.10606602 -0.10606602 -0.04687500
0.10606602 -0.10606602 0.03125000
0.10606602 -0.10606602 0.10937500
0.10606602 -0.10606602 0.18750000
0.10606602 -0.10606602 0.26562500
0.10606602 -0.10606602 0.34375000
0.10606602 -0.10606602 0.42187500
0.10606602 -0.10606602 0.50000000

CELLS 1308 6144
4 133 134 70 124
4 70 125 124 134
4 70 125 134 71
4 132 133 69 123
4 69 124 123 133
4 69 124 133 70
4 131 132 68 122
4 68 123 122 132
4 68 123 132 69
4 130 131 67 121
4 67 122 121 131
4 67 122 131 68
4 129 130 66 120
4 66 121 120 130
4 66 121 130 67
4 128 129 65 119
4 65 120 119 129
4 65 120 129 66
4 127 128 64 118
4 64 119 118 128
4 64 119 128 65
4 126 127 63 117
4 63 118 117 127
4 63 118 127 64
4 61 62 25 7
4 25 26 7 62
4 7 8 62 26
4 60 61 24 6
4 24 25 6 61
4 6 7 61 25
4 59 60 23 5
4 23 24 5 60
4 5 6 60 24
4 58 59 22 4
4 22 23 4 59
4 4 5 59 23
4 57 58 21 3
4 21 22 3 58
4 3 4 58 22
4 56 57 20 2
4 20 21 2 57
4 2 3 57 21
4 55 56 19 1
4 19 20 1 56
4 1 2 56 20
4 54 55 18 0
4 18 19 0 55
4 0 1 55 19
4 61 62 7 52
4 7 53 52 62
4 7 53 62 8
4 60 61 6 51
4 6 52 51 61
4 6 52 61 7
4 59 60 5 50
4 5 51 50 60
4 5 51 60 6
4 58 59 4 49
4 4 50 49 59
4 4 50 59 5
4 57 58 3 48
4 3 49 48 58
4 3 49 58 4
4 56 57 2 47
4 2 48 47 57
4 2 48 57 3
4 55 56 1 46
4 1 47 46 56
4 1 47 56 2
4 54 55 0 45
4 0 46 45 55
4 0 46 55 1
4 115 116 61 52
4 61 62 52 116
4 52 53 116 62
4 114 115 60 51
4 60 61 51 115
4 51 52 115 61
4 113 114 59 50
4 59 60 50 114
4 50 51 114 60
4 112 113 58 49
4 58 59 49 113
4 49 50 113 59
4 111 112 57 48
4 57 58 48 112
4 48 49 112 58
4 110 111 56 47
4 56 57 47 111
4 47 48 111 57
4 109 110 55 46
4 55 56 46 110
4 46 47 110 56
4 108 109 54 45
4 54 55 45 109
4 45 46 109 55
4 124 125 70 61
4 70 71 61 125
4 61 62 125 71
4 123 124 69 60
4 69 70 60 124
4 60 61 124 70
4 122 123 68 59
4 68 69 59 123
4 59 60 123 69
4 121 122 67 58
4 67 68 58 122
4 58 59 122 68
4 120 121 66 57
4 66 67 57 121
4 57 58 121 67
4 119 120 65 56
4 65 66 56 120
4 56 57 120 66
4 118 119 64 55
4 64 65 55 119
4 55 56 119 65
4 117 118 63 54
4 63 64 54 118
4 54 55 118 64
4 133 179 124 178
4 133 134 124 179
4 124 179 134 125
4 132 178 123 177
4 132 133 123 178
4 123 178 133 124
4 131 177 122 176
4 131 132 122 177
4 122 177 132 123
4 130 176 121 175
4 130 131 121 176
4 121 176 131 122
4 129 175 120 174
4 129 130 120 175
4 120 175 130 121
4 128 174 119 173
4 128 129 119 174
4 119 174 129 120
4 127 173 118 172
4 127 128 118 173
4 118 173 128 119
4 126 172 117 171
4 126 127 117 172
4 117 172 127 118
4 70 71 25 61
4 25 62 61 71
4 25 62 71 26
4 69 70 24 60
4 24 61 60 70
4 24 61 70 25
4 68 69 23 59
4 23 60 59 69
4 23 60 69 24
4 67 68 22 58
4 22 59 58 68
4 22 59 68 23
4 66 67 21 57
4 21 58 57 67
4 21 58 67 22
4 65 66 20 56
4 20 57 56 66
4 20 57 66 21
4 64 65 19 55
4 19 56 55 65
4 19 56 65 20
4 63 64 18 54
4 18 55 54 64
4 18 55 64 19
4 115 125 124 61
4 115 125 61 116
4 61 62 116 125
4 114 124 123 60
4 114 124 60 115
4 60 61 115 124
4 113 123 122 59
4 113 123 59 114
4 59 60 114 123
4 112 122 121 58
4 112 122 58 113
4 58 59 113 122
4 111 121 120 57
4 111 121 57 112
4 57 58 112 121
4 110 120 119 56
4 110 120 56 111
4 56 57 111 120
4 109 119 118 55
4 109 119 55 110
4 55 56 110 119
4 108 118 117 54
4 108 118 54 109
4 54 55 109 118
4 124 188 187 178
4 124 188 178 179
4 124 179 125 188
4 123 187 186 177
4 123 187 177 178
4 123 178 124 187
4 122 186 185 176
4 122 186 176 177
4 122 177 123 186
4 121 185 184 175
4 121 185 175 176
[...]
CELL_DATA 1308
Scalars  Label int1
LOOKUP_TABLE FreeFempp_table
0
0
0
0
0
0
0
0
0
0
0
0
0
0
0
0
0
0
0
0
0
0
0
0
0
0
0
0
0
0
0
0
0
0
0
0
0
0
0
0
0
0
0
0
0
0
0
0
0
0
0
0
0
0
0
0
0
0
0
0
0
0
0
0
0
0
0
0
0
0
0
0
0
0
0
0
0
0
0
0
0
0
0
0
0
0
0
0
0
0
0
0
0
0
0
0
0
0
0
0
0
0
0
0
0
0
0
0
0
0
0
0
0
0
0
0
0
0
0
0
0
0
0
0
0
0
0
0
0
0
0
0
0
0
0
0
0
0
0
0
0
0
0
0
0
0
0
0
0
0
0
0
0
0
0
0
0
0
0
0
0
0
0
0
0
0
0
0
0
0
0
0
0
0
0
0
0
0
0
0
0
0
0
0
0
0
0
0
0
0
0
0
0
0
0
0
0
0
0
0
0
0
0
0
0
0
0
0
0
0
0
0
0
0
0
0
0
0
0
0
0
0
0
0
0
0
0
0
0
0
0
0
0
0
0
0
0
0
0
0
1
1
1
1
1
1
1
1
1
1
1
1
1
1
1
1
1
1
1
1
1
1
1
1
1
1
1
1
1
1
1
1
1
1
1
1
1
1
1
1
1
1
1
1
1
1
1
1
1
1
1
1
1
1
1
1
1
1
1
1
1
1
1
1
1
1
1
1
1
1
1
1
1
1
1
1
1
1
1
1
1
1
1
1
1
1
1
1
1
1
1
1
1
1
1
1
1
1
1
1
1
1
1
1
1
1
1
1
1
1
1
1
1
1
1
1
1
1
1
1
1
1
1
1
1
1
1
1
1
1
1
1
1
1
1
1
1
1
1
1
1
1
1
1
1
1
1
1
1
1
1
1
1
1
1
1
1
1
1
1
1
1
1
1
1
1
1
1
1
1
1
1
1
1
1
1
1
1
1
1
1
1
1
1
1
1
1
1
1
1
1
1
1
1
1
1
1
1
1
1
1
1
1
1
1
1
1
1
1
1
1
1
1
1
1
1
1
1
1
1
1
1
1
1
1
1
1
1
1
1
1
1
1
1
1
1
1
1
1
1
1
1
1
1
1
1
1
1
1
1
1
1
1
1
1
1
1
1
1
1
1
1
1
1
1
1
1
1
1
1
1
1
1
1
1
1
1
1
1
1
1
1
1
1
1
1
1
1
1
1
1
1
1
1
1
1
1
1
1
1
1
1
1
1
1
1
1
1
1
1
1
1
1
1
1
1
1
1
1
1
1
1
1
1
1
1
1
1
1
1
1
1
1
1
1
1
1
1
1
1
1
1
1
1
1
1
1
1
1
1
1
1
1
1
1
1
1
1
1
1
1
1
1
1
1
1
1
1
1
1
1
1
1
1
1
1
1
1
1
1
1
1
1
1
2
2
2
2
2
2
2
2
2
2
2
2
2
2
2
2
2
2
2
2
2
2
2
2
2
2
2
2
2
2
2
2
2
2
2
2
2
2
2
2
2
2
2
2
2
2
2
2
2
2
2
2
2
2
2
2
2
2
2
2
2
2
2
2
2
2
2
2
2
2
2
2
2
2
2
2
2
2
2
2
2
2
2
2
2
2
2
2
2
2
2
2
2
2
2
2
2
2
2
2
2
2
2
2
2
2
2
2
2
2
2
2
2
2
2
2
2
2
2
2
2
2
2
2
2
2
2
2
2
2
2
2
2
2
2
2
2
2
2
2
2
2
2
2
2
2
2
2
2
2
2
2
2
2
2
2
2
2
2
2
2
2
2
2
2
2
2
2
2
2
2
2
2
2
2
2
2
2
2
2
2
2
2
2
2
2
2
2
2
2
2
2
2
2
2
2
2
2
2
2
2
2
2
2
2
2
2
2
2
2
2
2
2
2
2
2
2
2
2
2
2
2
2
2
2
2
2
2
2
2
2
2
2
2
2
2
2
2
2
2
2
2
2
2
2
2
2
2
2
2
2
2
2
2
2
2
2
2
2
2
2
2
2
2
2
2
2
2
2
2
2
2
2
2
2
2
2
2
2
2
2
2
2
2
2
2
2
2
1
1
1
1
1
1
1
1
1
1
1
1
1
1
1
1
1
1
1
1
1
1
1
1
1
1
2
2
2
2
2
2
2
2
2
2
2
2
1
1
1
1
1
1
1
1
1
1
1
1
1
1
1
1
1
1
1
1
1
1
1
1
1
1
2
2
2
2
2
2
2
2
2
2
2
2
1
1
1
1
1
1
1
1
1
1
1
1
1
1
1
1
1
1
1
1
1
1
1
1
1
1
1
1
1
1
1
1
1
1
1
1
1
1
1
1
1
1
1
1
1
1
1
1
1
1
1
1
1
1
1
1
1
1
1
1
1
1
1
1
1
1
1
1
1
1
1
1
1
1
1
1
1
1
1
1
1
1
1
1
1
1
1
1
1
1
1
1
1
1
1
1
1
1
1
1
1
1
1
1
1
1
1
1
1
1
1
1
1
1
1
1
1
1
1
1
1
1
1
1
1
1
1
1
1
1
1
1
1
1
1
1
1
1
1
1
1
1
1
1
1
1
1
1
1
1
1
1
1
1
1
1
1
1
1
1
1
1
1
1
1
1
1
1
1
1
1
1
1
1
1
1
1
1
1
1
1
1
1
1
1
1
1
1
1
1
1
1
1
1
1
1
1
1
1
1
1
1
1
1
1
1
1
1
1
1
1
1
1
1
1
1
1
1
1
1
1
1
1
1
1
1
1
1
1
1
1
1
1
1
1
1
1
1
1
1
1
1
1
1
1
1
1
1
1
1
1
1
1
1
1
1
1
1
1
1
1
1
1
1
1
1
1
1
1
1
1
1
1
1
1
1
1
1
1
1
1
1
1
1
1
1
1
1
1
1
1
1
1
1
1
1
1
1
1
1
1
1
1
1
1
1
1
1
1
1
1
1
1
1
1
1
1
1
1
1

LOOKUP_TABLE FreeFempp_table 3
1.00000000 0.00000000 0.00000000 1.00000000
1.00000000 1.00000000 0.00000000 1.00000000
1.00000000 0.00000000 1.00000000 1.00000000

FIELD FieldData 2
NavSto 3 1308 float
-2.37416886e-09 -5.00597196e-07 5.08658843e-07 -2.37416886e-09 -5.00597196e-07 5.08658843e-07 -2.04680660e-40 -3.28759754e-38 3.63963202e-38 -4.33709202e-09 -6.72165527e-07 6.85326427e-07 -6.71126088e-09 -1.17276272e-06 1.19398533e-06 -2.37416886e-09 -5.00597196e-07 5.08658843e-07 -5.40358158e-09 -7.14857265e-07 7.30709985e-07 -9.74067405e-09 -1.38702285e-06 1.41603641e-06 -4.33709202e-09 -6.72165527e-07 6.85326427e-07 -5.67190606e-09 -7.20934509e-07 7.37354185e-07 -1.10754872e-08 -1.43579177e-06 1.46806417e-06 -5.40358158e-09 -7.14857265e-07 7.30709985e-07 -5.23303978e-09 -7.06208880e-07 7.21156709e-07 -1.09049463e-08 -1.42714339e-06 1.45851095e-06 -5.67190606e-09 -7.20934509e-07 7.37354185e-07 -4.02062739e-09 -6.37176697e-07 6.48345633e-07 -9.25366717e-09 -1.34338563e-06 1.36950234e-06 -5.23303978e-09 -7.06208880e-07 7.21156709e-07 -2.63542876e-09 -4.04657044e-07 4.10923747e-07 -6.65605615e-09 -1.04183368e-06 1.05926938e-06 -4.02062739e-09 -6.37176697e-07 6.48345633e-07 -1.43262870e-39 -3.40027791e-38 3.65669030e-38 -2.63542876e-09 -4.04657044e-07 4.10923747e-07 -2.63542876e-09 -4.04657044e-07 4.10923747e-07 -2.36602626e-09 -4.04103702e-07 4.10159686e-07 -1.35860090e-40 -6.40167173e-38 6.48622776e-38 -1.41818411e-40 -3.41937621e-38 3.52277606e-38 -5.88946314e-09 -1.03928232e-06 1.05601282e-06 -2.36602626e-09 -4.04103702e-07 4.10159686e-07 -2.36602626e-09 -4.04103702e-07 4.10159686e-07 -8.33029912e-09 -1.33871822e-06 1.36402446e-06 -3.52343710e-09 -6.35178594e-07 6.45853106e-07 -3.52343710e-09 -6.35178594e-07 6.45853106e-07 -1.01249915e-08 -1.42161036e-06 1.45244906e-06 -4.80686202e-09 -7.03539683e-07 7.18171407e-07 -4.80686202e-09 -7.03539683e-07 7.18171407e-07 -1.04277511e-08 -1.43001125e-06 1.46192872e-06 -5.31812949e-09 -7.18070680e-07 7.34277705e-07 -5.31812949e-09 -7.18070680e-07 7.34277705e-07 -9.26580590e-09 -1.38119788e-06 1.41009275e-06 -5.10962161e-09 -7.11940515e-07 7.27651013e-07 -5.10962161e-09 -7.11940515e-07 7.27651013e-07 -6.49766951e-09 -1.16748072e-06 1.18892763e-06 -4.15618473e-09 -6.69257361e-07 6.82441737e-07 -4.15618473e-09 -6.69257361e-07 6.82441737e-07 -2.34148501e-09 -4.98223358e-07 5.06485890e-07 -2.34148501e-09 -4.98223358e-07 5.06485890e-07 -2.34148501e-09 -4.98223358e-07 5.06485890e-07 -2.36602626e-09 -4.04103702e-07 4.10159686e-07 -8.53731280e-40 -6.31627323e-38 6.58266792e-38 -3.49761294e-40 -3.40512584e-38 3.57815481e-38 -5.88946314e-09 -1.03928232e-06 1.05601282e-06 -2.36602626e-09 -4.04103702e-07 4.10159686e-07 -2.36602626e-09 -4.04103702e-07 4.10159686e-07 -8.33029912e-09 -1.33871822e-06 1.36402446e-06 -3.52343710e-09 -6.35178594e-07 6.45853106e-07 -3.52343710e-09 -6.35178594e-07 6.45853106e-07 -1.01249915e-08 -1.42161036e-06 1.45244906e-06 -4.80686202e-09 -7.03539683e-07 7.18171407e-07 -4.80686202e-09 -7.03539683e-07 7.18171407e-07 -1.04277511e-08 -1.43001125e-06 1.46192872e-06 -5.31812949e-09 -7.18070680e-07 7.34277705e-07 -5.31812949e-09 -7.18070680e-07 7.34277705e-07 -9.26580590e-09 -1.38119788e-06 1.41009275e-06 -5.10962161e-09 -7.11940515e-07 7.27651013e-07 -5.10962161e-09 -7.11940515e-07 7.27651013e-07 -6.49766951e-09 -1.16748072e-06 1.18892763e-06 -4.15618473e-09 -6.69257361e-07 6.82441737e-07 -4.15618473e-09 -6.69257361e-07 6.82441737e-07 -2.34148501e-09 -4.98223358e-07 5.06485890e-07 -2.34148501e-09 -4.98223358e-07 5.06485890e-07 -2.34148501e-09 -4.98223358e-07 5.06485890e-07 -2.36602626e-09 -4.04103702e-07 4.10159686e-07 -2.36602626e-09 -4.04103702e-07 4.10159686e-07 -1.42688617e-39 -3.37012197e-38 3.64951538e-38 -3.52343710e-09 -6.35178594e-07 6.45853106e-07 -5.88946314e-09 -1.03928232e-06 1.05601282e-06 -2.36602626e-09 -4.04103702e-07 4.10159686e-07 -4.80686202e-09 -7.03539683e-07 7.18171407e-07 -8.33029912e-09 -1.33871822e-06 1.36402446e-06 -3.52343710e-09 -6.35178594e-07 6.45853106e-07 -5.31812949e-09 -7.18070680e-07 7.34277705e-07 -1.01249915e-08 -1.42161036e-06 1.45244906e-06 -4.80686202e-09 -7.03539683e-07 7.18171407e-07 -5.10962161e-09 -7.11940515e-07 7.27651013e-07 -1.04277511e-08 -1.43001125e-06 1.46192872e-06 -5.31812949e-09 -7.18070680e-07 7.34277705e-07 -4.15618473e-09 -6.69257361e-07 6.82441737e-07 -9.26580590e-09 -1.38119788e-06 1.41009275e-06 -5.10962161e-09 -7.11940515e-07 7.27651013e-07 -2.34148501e-09 -4.98223358e-07 5.06485890e-07 -6.49766951e-09 -1.16748072e-06 1.18892763e-06 -4.15618473e-09 -6.69257361e-07 6.82441737e-07 -3.41734656e-41 -3.28342083e-38 3.62307988e-38 -2.34148501e-09 -4.98223358e-07 5.06485890e-07 -2.34148501e-09 -4.98223358e-07 5.06485890e-07 -4.74019490e-09 -9.04700926e-07 9.18818557e-07 -2.36602626e-09 -4.04103702e-07 4.10159686e-07 -2.36602626e-09 -4.04103702e-07 4.10159686e-07 -1.02346975e-08 -1.80794132e-06 1.83983832e-06 -5.89760596e-09 -1.13577573e-06 1.15451201e-06 -8.26363156e-09 -1.53987946e-06 1.56467161e-06 -1.45475356e-08 -2.09056248e-06 2.13420776e-06 -9.14395404e-09 -1.37570521e-06 1.40349778e-06 -1.26673916e-08 -2.01088369e-06 2.04935077e-06 -1.63936171e-08 -2.15386240e-06 2.20234188e-06 -1.07217106e-08 -1.43292800e-06 1.46498769e-06 -1.55285722e-08 -2.13646763e-06 2.18315904e-06 -1.60145674e-08 -2.13908402e-06 2.18616196e-06 -1.07815277e-08 -1.43287502e-06 1.46500520e-06 -1.60996567e-08 -2.15094565e-06 2.19928302e-06 -1.34098519e-08 -2.01264288e-06 2.05194397e-06 -9.38922451e-09 -1.37546624e-06 1.40359839e-06 -1.44988457e-08 -2.08740676e-06 2.13124940e-06 -8.99754138e-09 -1.54005704e-06 1.56575527e-06 -6.36211261e-09 -1.13540011e-06 1.15483158e-06 -1.05182973e-08 -1.80465747e-06 1.83727332e-06 -2.63542876e-09 -4.04657044e-07 4.10923747e-07 -2.63542876e-09 -4.04657044e-07 4.10923747e-07 -4.97691399e-09 -9.02880402e-07 9.17409693e-07 -2.37416886e-09 -5.00597196e-07 5.08658843e-07 -2.37416886e-09 -5.00597196e-07 5.08658843e-07 -2.37416886e-09 -5.00597196e-07 5.08658843e-07 -4.33709202e-09 -6.72165527e-07 6.85326427e-07 -4.33709202e-09 -6.72165527e-07 6.85326427e-07 -6.71126088e-09 -1.17276272e-06 1.19398533e-06 -5.40358158e-09 -7.14857265e-07 7.30709985e-07 -5.40358158e-09 -7.14857265e-07 7.30709985e-07 -9.74067405e-09 -1.38702285e-06 1.41603641e-06 -5.67190606e-09 -7.20934509e-07 7.37354185e-07 -5.67190606e-09 -7.20934509e-07 7.37354185e-07 -1.10754872e-08 -1.43579177e-06 1.46806417e-06 -5.23303978e-09 -7.06208880e-07 7.21156709e-07 -5.23303978e-09 -7.06208880e-07 7.21156709e-07 -1.09049463e-08 -1.42714339e-06 1.45851095e-06 -4.02062739e-09 -6.37176697e-07 6.48345633e-07 -4.02062739e-09 -6.37176697e-07 6.48345633e-07 -9.25366717e-09 -1.34338563e-06 1.36950234e-06 -2.63542876e-09 -4.04657044e-07 4.10923747e-07 -2.63542876e-09 -4.04657044e-07 4.10923747e-07 -6.65605615e-09 -1.04183368e-06 1.05926938e-06 -3.42042942e-40 -4.06995873e-38 4.25635048e-38 -9.22600896e-40 -7.00176154e-38 7.25719471e-38 -2.63542876e-09 -4.04657044e-07 4.10923747e-07 -2.36602626e-09 -4.04103702e-07 4.10159686e-07 -2.36602626e-09 -4.04103702e-07 4.10159686e-07 -1.54498761e-40 -3.44199709e-38 3.50464410e-38 -3.52343710e-09 -6.35178594e-07 6.45853106e-07 -5.88946314e-09 -1.03928232e-06 1.05601282e-06 -2.36602626e-09 -4.04103702e-07 4.10159686e-07 -4.80686202e-09 -7.03539683e-07 7.18171407e-07 -8.33029912e-09 -1.33871822e-06 1.36402446e-06 -3.52343710e-09 -6.35178594e-07 6.45853106e-07 -5.31812949e-09 -7.18070680e-07 7.34277705e-07 -1.01249915e-08 -1.42161036e-06 1.45244906e-06 -4.80686202e-09 -7.03539683e-07 7.18171407e-07 -5.10962161e-09 -7.11940515e-07 7.27651013e-07 -1.04277511e-08 -1.43001125e-06 1.46192872e-06 -5.31812949e-09 -7.18070680e-07 7.34277705e-07 -4.15618473e-09 -6.69257361e-07 6.82441737e-07 -9.26580590e-09 -1.38119788e-06 1.41009275e-06 -5.10962161e-09 -7.11940515e-07 7.27651013e-07 -2.34148501e-09 -4.98223358e-07 5.06485890e-07 -6.49766951e-09 -1.16748072e-06 1.18892763e-06 -4.15618473e-09 -6.69257361e-07 6.82441737e-07 -2.19531621e-39 -3.45683572e-38 3.78636142e-38 -2.34148501e-09 -4.98223358e-07 5.06485890e-07 -2.34148501e-09 -4.98223358e-07 5.06485890e-07 -4.74019490e-09 -9.04700926e-07 9.18818557e-07 -2.36602626e-09 -4.04103702e-07 4.10159686e-07 -2.36602626e-09 -4.04103702e-07 4.10159686e-07 -1.02346975e-08 -1.80794132e-06 1.83983832e-06 -5.89760596e-09 -1.13577573e-06 1.15451201e-06 -8.26363156e-09 -1.53987946e-06 1.56467161e-06 -1.45475356e-08 -2.09056248e-06 2.13420776e-06 -9.14395404e-09 -1.37570521e-06 1.40349778e-06 -1.26673916e-08 -2.01088369e-06 2.04935077e-06 -1.63936171e-08 -2.15386240e-06 2.20234188e-06 -1.07217106e-08 -1.43292800e-06 1.46498769e-06 -1.55285722e-08 -2.13646763e-06 2.18315904e-06 -1.60145674e-08 -2.13908402e-06 2.18616196e-06 -1.07815277e-08 -1.43287502e-06 1.46500520e-06 -1.60996567e-08 -2.15094565e-06 2.19928302e-06 -1.34098519e-08 -2.01264288e-06 2.05194397e-06 -9.38922451e-09 -1.37546624e-06 1.40359839e-06 -1.44988457e-08 -2.08740676e-06 2.13124940e-06 -8.99754138e-09 -1.54005704e-06 1.56575527e-06 -6.36211261e-09 -1.13540011e-06 1.15483158e-06 -1.05182973e-08 -1.80465747e-06 1.83727332e-06 -2.63542876e-09 -4.04657044e-07 4.10923747e-07 -2.63542876e-09 -4.04657044e-07 4.10923747e-07 -4.97691399e-09 -9.02880402e-07 9.17409693e-07 -2.37416886e-09 -5.00597196e-07 5.08658843e-07 -2.37416886e-09 -5.00597196e-07 5.08658843e-07 -2.37416886e-09 -5.00597196e-07 5.08658843e-07 -4.33709202e-09 -6.72165527e-07 6.85326427e-07 -4.33709202e-09 -6.72165527e-07 6.85326427e-07 -6.71126088e-09 -1.17276272e-06 1.19398533e-06 -5.40358158e-09 -7.14857265e-07 7.30709985e-07 -5.40358158e-09 -7.14857265e-07 7.30709985e-07 -9.74067405e-09 -1.38702285e-06 1.41603641e-06 -5.67190606e-09 -7.20934509e-07 7.37354185e-07 -5.67190606e-09 -7.20934509e-07 7.37354185e-07 -1.10754872e-08 -1.43579177e-06 1.46806417e-06 -5.23303978e-09 -7.06208880e-07 7.21156709e-07 -5.23303978e-09 -7.06208880e-07 7.21156709e-07 -1.09049463e-08 -1.42714339e-06 1.45851095e-06 -4.02062739e-09 -6.37176697e-07 6.48345633e-07 -4.02062739e-09 -6.37176697e-07 6.48345633e-07 -9.25366717e-09 -1.34338563e-06 1.36950234e-06 -2.63542876e-09 -4.04657044e-07 4.10923747e-07 -2.63542876e-09 -4.04657044e-07 4.10923747e-07 -6.65605615e-09 -1.04183368e-06 1.05926938e-06 -1.52172605e-40 -4.02230813e-38 4.08968789e-38 -1.53246000e-40 -6.40213359e-38 6.53231030e-38 -2.63542876e-09 -4.04657044e-07 4.10923747e-07 -2.37416886e-09 -5.00597196e-07 5.08658843e-07 -2.37416886e-09 -5.00597196e-07 5.08658843e-07 -2.12137250e-39 -4.28449135e-38 4.62708276e-38 -4.33709202e-09 -6.72165527e-07 6.85326427e-07 -6.71126088e-09 -1.17276272e-06 1.19398533e-06 -2.37416886e-09 -5.00597196e-07 5.08658843e-07 -5.40358158e-09 -7.14857265e-07 7.30709985e-07 -9.74067405e-09 -1.38702285e-06 1.41603641e-06 -4.33709202e-09 -6.72165527e-07 6.85326427e-07 -5.67190606e-09 -7.20934509e-07 7.37354185e-07 -1.10754872e-08 -1.43579177e-06 1.46806417e-06 -5.40358158e-09 -7.14857265e-07 7.30709985e-07 -5.23303978e-09 -7.06208880e-07 7.21156709e-07 -1.09049463e-08 -1.42714339e-06 1.45851095e-06 -5.67190606e-09 -7.20934509e-07 7.37354185e-07 -4.02062739e-09 -6.37176697e-07 6.48345633e-07 -9.25366717e-09 -1.34338563e-06 1.36950234e-06 -5.23303978e-09 -7.06208880e-07 7.21156709e-07 -2.63542876e-09 -4.04657044e-07 4.10923747e-07 -6.65605615e-09 -1.04183368e-06 1.05926938e-06 -4.02062739e-09 -6.37176697e-07 6.48345633e-07 -1.05014708e-40 -2.79222228e-38 2.86743921e-38 -2.63542876e-09 -4.04657044e-07 4.10923747e-07 -2.63542876e-09 -4.04657044e-07 4.10923747e-07 5.57065185e-40 -2.01397810e-38 2.10733331e-38 8.37706031e-40 -8.30108611e-39 9.61115724e-39 -1.05663509e-40 1.20424675e-38 -1.20183526e-38 -8.34879612e-41 -3.16583843e-38 3.28364644e-38 5.58697698e-40 -5.21350852e-38 5.40884280e-38 -4.25127329e-40 -2.04356932e-38 2.07790422e-38 -5.83727691e-40 -3.46382511e-38 3.60880766e-38 -1.51062777e-40 -6.65127381e-38 6.92169639e-38 -1.29356804e-39 -3.20883251e-38 3.27613772e-38 -8.82537773e-40 -3.54515199e-38 3.70059719e-38 -5.89599131e-40 -7.02296823e-38 7.33218267e-38 -1.79838161e-39 -3.51264103e-38 3.60558383e-38 -1.10835702e-39 -3.60638537e-38 3.75247690e-38 -8.89726434e-40 -7.16151181e-38 7.47156759e-38 -2.04800892e-39 -3.59669399e-38 3.70089006e-38 -1.36546026e-39 -3.66071708e-38 3.77173579e-38 -1.20279893e-39 -7.27407923e-38 7.53988705e-38 -2.15661515e-39 -3.65652271e-38 3.75892988e-38 -1.70430964e-39 -2.92037578e-38 3.00062815e-38 -1.67290234e-39 -6.58826975e-38 6.78058507e-38 -2.18893890e-39 -3.70492356e-38 3.78342346e-38 -7.54581006e-40 3.34310577e-40 1.32159681e-39 -1.19851796e-39 -2.89109481e-38 3.11776773e-38 -1.88751820e-39 -2.93624269e-38 3.09803044e-38 4.02011510e-40 -3.04886364e-38 3.25957633e-38 -5.41358031e-40 -1.01450800e-38 1.09662535e-38 7.76599609e-42 2.34341244e-39 -1.04465399e-39 -5.25750368e-40 -7.58569886e-38 7.91100470e-38 -1.50957540e-39 -4.41575967e-38 4.58006612e-38 -9.63076001e-40 -6.60492334e-38 6.90795582e-38 -1.49591274e-39 -8.97358298e-38 9.40416556e-38 -2.63841800e-39 -5.53114196e-38 5.75860689e-38 -2.51278458e-39 -7.86033823e-38 8.26827751e-38 -2.00261245e-39 -9.33182549e-38 9.80884935e-38 -3.21139493e-39 -5.82149829e-38 6.08225079e-38 -3.34159097e-39 -8.09499182e-38 8.56794351e-38 -2.28530340e-39 -9.49061222e-38 9.95988914e-38 -3.44358588e-39 -5.92579469e-38 6.18921134e-38 -3.69112806e-39 -8.18310995e-38 8.66558542e-38 -2.49886128e-39 -9.66039018e-38 1.00584621e-37 -3.45267750e-39 -6.04283394e-38 6.27750491e-38 -3.79999633e-39 -8.32179758e-38 8.75937321e-38 -2.74920045e-39 -8.84064067e-38 9.11393311e-38 -3.26523842e-39 -5.95729420e-38 6.11677149e-38 -3.73782072e-39 -8.29939923e-38 8.62365857e-38 -1.45909922e-39 -1.67691145e-38 1.94108214e-38 -2.14809806e-39 -1.72205919e-38 1.92134485e-38 -3.04118901e-39 -3.95856306e-38 4.15729045e-38 -9.89518503e-40 -5.18717532e-38 5.20678733e-38 -4.40394476e-40 -3.93832635e-38 4.00569658e-38 -7.15531022e-41 -1.72279487e-38 1.66019116e-38 -2.19343147e-39 -6.19135981e-38 6.18651692e-38 -1.64693347e-39 -8.38052376e-38 8.51440662e-38 -7.30005034e-40 -8.99713152e-38 8.97618939e-38 -3.22315042e-39 -6.18654439e-38 6.18108268e-38 -3.09751841e-39 -8.51574121e-38 8.69075386e-38 -1.79433886e-39 -1.00167023e-37 9.93993129e-38 -3.69054932e-39 -6.15767315e-38 6.15067563e-38 -3.82074676e-39 -8.43116669e-38 8.63636835e-38 -2.55980095e-39 -9.96516027e-38 9.89506620e-38 -3.81652465e-39 -6.11480239e-38 6.09418817e-38 -4.06406683e-39 -8.37211765e-38 8.57056225e-38 -2.85470561e-39 -9.85700805e-38 9.78225046e-38 -3.68519075e-39 -5.87564446e-38 5.83075190e-38 -4.03250958e-39 -8.15460754e-38 8.31262020e-38 -2.89075402e-39 -9.51242988e-38 9.41811241e-38 -3.23741984e-39 -4.56678321e-38 4.48617352e-38 -3.71000355e-39 -6.90888796e-38 6.99306060e-38 -2.70355736e-39 -8.10268943e-38 7.98111110e-38 -1.75040815e-39 2.26562636e-38 -2.13843246e-38 -2.64349911e-39 2.91224853e-40 9.75132773e-40 -2.32369337e-39 -3.46244399e-38 3.42355796e-38 -6.21625808e-40 -3.03490223e-38 2.87824014e-38 -6.05837378e-41 -3.05031763e-38 2.86405648e-38 -5.96336574e-41 -2.98705965e-38 2.84709796e-38 -1.23963346e-39 -3.93067694e-38 3.67464710e-38 -3.25242775e-40 -3.96756697e-38 3.67398989e-38 -3.62113740e-40 -6.84485759e-38 6.64764221e-38 -1.95919882e-39 -3.99978702e-38 3.69477087e-38 -8.79768807e-40 -4.06830043e-38 3.69257195e-38 -8.40540858e-40 -7.75601884e-38 7.42806175e-38 -2.31683962e-39 -3.99407617e-38 3.67371580e-38 -1.18308546e-39 -4.08081206e-38 3.67309671e-38 -1.29584935e-39 -7.77840319e-38 7.40875466e-38 -2.43162978e-39 -3.93146475e-38 3.60949457e-38 -1.30546226e-39 -4.02518304e-38 3.60890883e-38 -1.48099591e-39 -7.69341051e-38 7.30529119e-38 -2.37294200e-39 -3.62507925e-38 3.32262860e-38 -1.33536737e-39 -3.72070554e-38 3.31980330e-38 -1.50586055e-39 -7.32909309e-38 6.93341909e-38 -2.08554270e-39 -2.42687966e-38 2.16838466e-38 -1.24587765e-39 -2.51841949e-38 2.16714857e-38 -1.39130861e-39 -5.85212451e-38 5.47298751e-38 -1.34788517e-39 1.00861596e-38 -8.97150934e-39 -1.08909757e-39 9.12015627e-39 -9.78994191e-39 -1.17181622e-39 -1.32254045e-38 1.10576896e-38 5.20069504e-40 -3.03883035e-38 2.89324020e-38 5.21018183e-40 -2.97557265e-38 2.87628197e-38 5.98807064e-40 4.96003604e-41 -1.12468775e-39 8.88245261e-40 -3.96688650e-38 3.67222398e-38 8.51374296e-40 -6.84417712e-38 6.64587601e-38 1.17251407e-39 -3.02273447e-38 2.90565823e-38 9.26255482e-40 -4.06744732e-38 3.69302878e-38 9.65482030e-40 -7.75516573e-38 7.42851858e-38 1.77987746e-39 -3.92914336e-38 3.67333829e-38 9.31087159e-40 -4.08012683e-38 3.67369590e-38 8.18323271e-40 -7.77771823e-38 7.40935386e-38 1.96099669e-39 -3.99824896e-38 3.69582717e-38 9.25930381e-40 -4.02511493e-38 3.60925243e-38 7.50398130e-40 -7.69334269e-38 7.30563423e-38 2.02872565e-39 -3.99332311e-38 3.67465831e-38 8.76069379e-40 -3.72178566e-38 3.32061045e-38 7.05576198e-40 -7.33017321e-38 6.93422624e-38 2.01119961e-39 -3.93247705e-38 3.61064504e-38 7.58772290e-40 -2.52079749e-38 2.16893845e-38 6.13341331e-40 -5.85450223e-38 5.47477725e-38 1.84314469e-39 -3.62853738e-38 3.32522548e-38 2.56929475e-40 9.15248423e-39 -8.88910037e-39 1.74210826e-40 -1.31930765e-38 1.19585312e-38 1.26513289e-39 -2.42602459e-38 2.26025855e-38 5.27737409e-40 -4.67098264e-38 4.67095826e-38 6.05526290e-40 -1.69045010e-38 1.68220766e-38 2.25712749e-40 -1.69624278e-38 1.69128401e-38 1.16136954e-39 -1.03727027e-37 1.03118381e-37 1.48250932e-39 -6.55126034e-38 6.57162064e-3