# vtk DataFile Version 2.0
Tornado_init.vtk, Created by Freefem++ 
ASCII
DATASET UNSTRUCTURED_GRID
POINTS 234 float
-0.10000000 0.00000000 -0.12500000
-0.10000000 0.00000000 -0.04687500
-0.10000000 0.00000000 0.03125000
-0.10000000 0.00000000 0.10937500
-0.10000000 0.00000000 0.18750000
-0.10000000 0.00000000 0.26562500
-0.10000000 0.00000000 0.34375000
-0.10000000 0.00000000 0.42187500
-0.10000000 0.00000000 0.50000000
-0.00000000 -0.03333334 -0.12500000
-0.00000000 -0.03333334 -0.04687500
-0.00000000 -0.03333334 0.03125000
-0.00000000 -0.03333334 0.10937500
-0.00000000 -0.03333334 0.18750000
-0.00000000 -0.03333334 0.26562500
-0.00000000 -0.03333334 0.34375000
-0.00000000 -0.03333334 0.42187500
-0.00000000 -0.03333334 0.50000000
-0.07071068 -0.07071068 -0.12500000
-0.07071068 -0.07071068 -0.04687500
-0.07071068 -0.07071068 0.03125000
-0.07071068 -0.07071068 0.10937500
-0.07071068 -0.07071068 0.18750000
-0.07071068 -0.07071068 0.26562500
-0.07071068 -0.07071068 0.34375000
-0.07071068 -0.07071068 0.42187500
-0.07071068 -0.07071068 0.50000000
-0.00000000 -0.10000000 -0.12500000
-0.00000000 -0.10000000 -0.04687500
-0.00000000 -0.10000000 0.03125000
-0.00000000 -0.10000000 0.10937500
-0.00000000 -0.10000000 0.18750000
-0.00000000 -0.10000000 0.26562500
-0.00000000 -0.10000000 0.34375000
-0.00000000 -0.10000000 0.42187500
-0.00000000 -0.10000000 0.50000000
-0.21213204 -0.21213204 -0.12500000
-0.21213204 -0.21213204 -0.04687500
-0.21213204 -0.21213204 0.03125000
-0.21213204 -0.21213204 0.10937500
-0.21213204 -0.21213204 0.18750000
-0.21213204 -0.21213204 0.26562500
-0.21213204 -0.21213204 0.34375000
-0.21213204 -0.21213204 0.42187500
-0.21213204 -0.21213204 0.50000000
-0.56568545 -0.56568545 -0.12500000
-0.56568545 -0.56568545 -0.04687500
-0.56568545 -0.56568545 0.03125000
-0.56568545 -0.56568545 0.10937500
-0.56568545 -0.56568545 0.18750000
-0.56568545 -0.56568545 0.26562500
-0.56568545 -0.56568545 0.34375000
-0.56568545 -0.56568545 0.42187500
-0.56568545 -0.56568545 0.50000000
-0.00000000 0.03333333 -0.12500000
-0.00000000 0.03333333 -0.04687500
-0.00000000 0.03333333 0.03125000
-0.00000000 0.03333333 0.10937500
-0.00000000 0.03333333 0.18750000
-0.00000000 0.03333333 0.26562500
-0.00000000 0.03333333 0.34375000
-0.00000000 0.03333333 0.42187500
-0.00000000 0.03333333 0.50000000
-0.30000001 0.00000000 -0.12500000
-0.30000001 0.00000000 -0.04687500
-0.30000001 0.00000000 0.03125000
-0.30000001 0.00000000 0.10937500
-0.30000001 0.00000000 0.18750000
-0.30000001 0.00000000 0.26562500
-0.30000001 0.00000000 0.34375000
-0.30000001 0.00000000 0.42187500
-0.30000001 0.00000000 0.50000000
-0.80000001 0.00000000 -0.12500000
-0.80000001 0.00000000 -0.04687500
-0.80000001 0.00000000 0.03125000
-0.80000001 0.00000000 0.10937500
-0.80000001 0.00000000 0.18750000
-0.80000001 0.00000000 0.26562500
-0.80000001 0.00000000 0.34375000
-0.80000001 0.00000000 0.42187500
-0.80000001 0.00000000 0.50000000
0.00000000 0.10000000 -0.12500000
0.00000000 0.10000000 -0.04687500
0.00000000 0.10000000 0.03125000
0.00000000 0.10000000 0.10937500
0.00000000 0.10000000 0.18750000
0.00000000 0.10000000 0.26562500
0.00000000 0.10000000 0.34375000
0.00000000 0.10000000 0.42187500
0.00000000 0.10000000 0.50000000
-0.07071068 0.07071068 -0.12500000
-0.07071068 0.07071068 -0.04687500
-0.07071068 0.07071068 0.03125000
-0.07071068 0.07071068 0.10937500
-0.07071068 0.07071068 0.18750000
-0.07071068 0.07071068 0.26562500
-0.07071068 0.07071068 0.34375000
-0.07071068 0.07071068 0.42187500
-0.07071068 0.07071068 0.50000000
0.10000000 0.00000000 -0.12500000
0.10000000 0.00000000 -0.04687500
0.10000000 0.00000000 0.03125000
0.10000000 0.00000000 0.10937500
0.10000000 0.00000000 0.18750000
0.10000000 0.00000000 0.26562500
0.10000000 0.00000000 0.34375000
0.10000000 0.00000000 0.42187500
0.10000000 0.00000000 0.50000000
0.07071068 -0.07071068 -0.12500000
0.07071068 -0.07071068 -0.04687500
0.07071068 -0.07071068 0.03125000
0.07071068 -0.07071068 0.10937500
0.07071068 -0.07071068 0.18750000
0.07071068 -0.07071068 0.26562500
0.07071068 -0.07071068 0.34375000
0.07071068 -0.07071068 0.42187500
0.07071068 -0.07071068 0.50000000
-0.00000000 -0.30000001 -0.12500000
-0.00000000 -0.30000001 -0.04687500
-0.00000000 -0.30000001 0.03125000
-0.00000000 -0.30000001 0.10937500
-0.00000000 -0.30000001 0.18750000
-0.00000000 -0.30000001 0.26562500
-0.00000000 -0.30000001 0.34375000
-0.00000000 -0.30000001 0.42187500
-0.00000000 -0.30000001 0.50000000
-0.00000000 -0.80000001 -0.12500000
-0.00000000 -0.80000001 -0.04687500
-0.00000000 -0.80000001 0.03125000
-0.00000000 -0.80000001 0.10937500
-0.00000000 -0.80000001 0.18750000
-0.00000000 -0.80000001 0.26562500
-0.00000000 -0.80000001 0.34375000
-0.00000000 -0.80000001 0.42187500
-0.00000000 -0.80000001 0.50000000
0.07071068 0.07071068 -0.12500000
0.07071068 0.07071068 -0.04687500
0.07071068 0.07071068 0.03125000
0.07071068 0.07071068 0.10937500
0.07071068 0.07071068 0.18750000
0.07071068 0.07071068 0.26562500
0.07071068 0.07071068 0.34375000
0.07071068 0.07071068 0.42187500
0.07071068 0.07071068 0.50000000
-0.21213204 0.21213204 -0.12500000
-0.21213204 0.21213204 -0.04687500
-0.21213204 0.21213204 0.03125000
-0.21213204 0.21213204 0.10937500
-0.21213204 0.21213204 0.18750000
-0.21213204 0.21213204 0.26562500
-0.21213204 0.21213204 0.34375000
-0.21213204 0.21213204 0.42187500
-0.21213204 0.21213204 0.50000000
-0.56568545 0.56568545 -0.12500000
-0.56568545 0.56568545 -0.04687500
-0.56568545 0.56568545 0.03125000
-0.56568545 0.56568545 0.10937500
-0.56568545 0.56568545 0.18750000
-0.56568545 0.56568545 0.26562500
-0.56568545 0.56568545 0.34375000
-0.56568545 0.56568545 0.42187500
-0.56568545 0.56568545 0.50000000
0.00000000 0.30000001 -0.12500000
0.00000000 0.30000001 -0.04687500
0.00000000 0.30000001 0.03125000
0.00000000 0.30000001 0.10937500
0.00000000 0.30000001 0.18750000
0.00000000 0.30000001 0.26562500
0.00000000 0.30000001 0.34375000
0.00000000 0.30000001 0.42187500
0.00000000 0.30000001 0.50000000
0.30000001 0.00000000 -0.12500000
0.30000001 0.00000000 -0.04687500
0.30000001 0.00000000 0.03125000
0.30000001 0.00000000 0.10937500
0.30000001 0.00000000 0.18750000
0.30000001 0.00000000 0.26562500
0.30000001 0.00000000 0.34375000
0.30000001 0.00000000 0.42187500
0.30000001 0.00000000 0.50000000
0.21213204 -0.21213204 -0.12500000
0.21213204 -0.21213204 -0.04687500
0.21213204 -0.21213204 0.03125000
0.21213204 -0.21213204 0.10937500
0.21213204 -0.21213204 0.18750000
0.21213204 -0.21213204 0.26562500
0.21213204 -0.21213204 0.34375000
0.21213204 -0.21213204 0.42187500
0.21213204 -0.21213204 0.50000000
0.56568545 -0.56568545 -0.12500000
0.56568545 -0.56568545 -0.04687500
0.56568545 -0.56568545 0.03125000
0.56568545 -0.56568545 0.10937500
0.56568545 -0.56568545 0.18750000
0.56568545 -0.56568545 0.26562500
0.56568545 -0.56568545 0.34375000
0.56568545 -0.56568545 0.42187500
0.56568545 -0.56568545 0.50000000
0.21213204 0.21213204 -0.12500000
0.21213204 0.21213204 -0.04687500
0.21213204 0.21213204 0.03125000
0.21213204 0.21213204 0.10937500
0.21213204 0.21213204 0.18750000
0.21213204 0.21213204 0.26562500
0.21213204 0.21213204 0.34375000
0.21213204 0.21213204 0.42187500
0.21213204 0.21213204 0.50000000
0.00000000 0.80000001 -0.12500000
0.00000000 0.80000001 -0.04687500
0.00000000 0.80000001 0.03125000
0.00000000 0.80000001 0.10937500
0.00000000 0.80000001 0.18750000
0.00000000 0.80000001 0.26562500
0.00000000 0.80000001 0.34375000
0.00000000 0.80000001 0.42187500
0.00000000 0.80000001 0.50000000
0.80000001 0.00000000 -0.12500000
0.80000001 0.00000000 -0.04687500
0.80000001 0.00000000 0.03125000
0.80000001 0.00000000 0.10937500
0.80000001 0.00000000 0.18750000
0.80000001 0.00000000 0.26562500
0.80000001 0.00000000 0.34375000
0.80000001 0.00000000 0.42187500
0.80000001 0.00000000 0.50000000
0.56568545 0.56568545 -0.12500000
0.56568545 0.56568545 -0.04687500
0.56568545 0.56568545 0.03125000
0.56568545 0.56568545 0.10937500
0.56568545 0.56568545 0.18750000
0.56568545 0.56568545 0.26562500
0.56568545 0.56568545 0.34375000
0.56568545 0.56568545 0.42187500
0.56568545 0.56568545 0.50000000

CELLS 1476 6912
4 142 143 88 61
4 88 89 61 143
4 61 62 143 89
4 141 142 87 60
4 87 88 60 142
4 60 61 142 88
4 140 141 86 59
4 86 87 59 141
4 59 60 141 87
4 139 140 85 58
4 85 86 58 140
4 58 59 140 86
4 138 139 84 57
4 84 85 57 139
4 57 58 139 85
4 137 138 83 56
4 83 84 56 138
4 56 57 138 84
4 136 137 82 55
4 82 83 55 137
4 55 56 137 83
4 135 136 81 54
4 81 82 54 136
4 54 55 136 82
4 142 143 61 106
4 61 107 106 143
4 61 107 143 62
4 141 142 60 105
4 60 106 105 142
4 60 106 142 61
4 140 141 59 104
4 59 105 104 141
4 59 105 141 60
4 139 140 58 103
4 58 104 103 140
4 58 104 140 59
4 138 139 57 102
4 57 103 102 139
4 57 103 139 58
4 137 138 56 101
4 56 102 101 138
4 56 102 138 57
4 136 137 55 100
4 55 101 100 137
4 55 101 137 56
4 135 136 54 99
4 54 100 99 136
4 54 100 136 55
4 16 35 25 34
4 16 26 25 35
4 16 35 17 26
4 15 34 24 33
4 15 25 24 34
4 15 34 16 25
4 14 33 23 32
4 14 24 23 33
4 14 33 15 24
4 13 32 22 31
4 13 23 22 32
4 13 32 14 23
4 12 31 21 30
4 12 22 21 31
4 12 31 13 22
4 11 30 20 29
4 11 21 20 30
4 11 30 12 21
4 10 29 19 28
4 10 20 19 29
4 10 29 11 20
4 9 28 18 27
4 9 19 18 28
4 9 28 10 19
4 16 116 34 115
4 16 35 34 116
4 16 116 17 35
4 15 115 33 114
4 15 34 33 115
4 15 115 16 34
4 14 114 32 113
4 14 33 32 114
4 14 114 15 33
4 13 113 31 112
4 13 32 31 113
4 13 113 14 32
4 12 112 30 111
4 12 31 30 112
4 12 112 13 31
4 11 111 29 110
4 11 30 29 111
4 11 111 12 30
4 10 110 28 109
4 10 29 28 110
4 10 110 11 29
4 9 109 27 108
4 9 28 27 109
4 9 109 10 28
4 106 116 16 115
4 106 107 16 116
4 16 116 107 17
4 105 115 15 114
4 105 106 15 115
4 15 115 106 16
4 104 114 14 113
4 104 105 14 114
4 14 114 105 15
4 103 113 13 112
4 103 104 13 113
4 13 113 104 14
4 102 112 12 111
4 102 103 12 112
4 12 112 103 13
4 101 111 11 110
4 101 102 11 111
4 11 111 102 12
4 100 110 10 109
4 100 101 10 110
4 10 110 101 11
4 99 109 9 108
4 99 100 9 109
4 9 109 100 10
4 61 62 7 16
[...]
CELL_DATA 1476
Scalars  Label int1
LOOKUP_TABLE FreeFempp_table
0
0
0
0
0
0
0
0
0
0
0
0
0
0
0
0
0
0
0
0
0
0
0
0
0
0
0
0
0
0
0
0
0
0
0
0
0
0
0
0
0
0
0
0
0
0
0
0
0
0
0
0
0
0
0
0
0
0
0
0
0
0
0
0
0
0
0
0
0
0
0
0
0
0
0
0
0
0
0
0
0
0
0
0
0
0
0
0
0
0
0
0
0
0
0
0
0
0
0
0
0
0
0
0
0
0
0
0
0
0
0
0
0
0
0
0
0
0
0
0
0
0
0
0
0
0
0
0
0
0
0
0
0
0
0
0
0
0
0
0
0
0
0
0
0
0
0
0
0
0
0
0
0
0
0
0
0
0
0
0
0
0
0
0
0
0
0
0
0
0
0
0
0
0
0
0
0
0
0
0
0
0
0
0
0
0
0
0
0
0
0
0
0
0
0
0
0
0
0
0
0
0
0
0
0
0
0
0
0
0
0
0
0
0
0
0
0
0
0
0
0
0
0
0
0
0
0
0
0
0
0
0
0
0
0
0
0
0
0
0
1
1
1
1
1
1
1
1
1
1
1
1
1
1
1
1
1
1
1
1
1
1
1
1
1
1
1
1
1
1
1
1
1
1
1
1
1
1
1
1
1
1
1
1
1
1
1
1
1
1
1
1
1
1
1
1
1
1
1
1
1
1
1
1
1
1
1
1
1
1
1
1
1
1
1
1
1
1
1
1
1
1
1
1
1
1
1
1
1
1
1
1
1
1
1
1
1
1
1
1
1
1
1
1
1
1
1
1
1
1
1
1
1
1
1
1
1
1
1
1
1
1
1
1
1
1
1
1
1
1
1
1
1
1
1
1
1
1
1
1
1
1
1
1
1
1
1
1
1
1
1
1
1
1
1
1
1
1
1
1
1
1
1
1
1
1
1
1
1
1
1
1
1
1
1
1
1
1
1
1
1
1
1
1
1
1
1
1
1
1
1
1
1
1
1
1
1
1
1
1
1
1
1
1
1
1
1
1
1
1
1
1
1
1
1
1
1
1
1
1
1
1
1
1
1
1
1
1
1
1
1
1
1
1
1
1
1
1
1
1
1
1
1
1
1
1
1
1
1
1
1
1
1
1
1
1
1
1
1
1
1
1
1
1
1
1
1
1
1
1
1
1
1
1
1
1
1
1
1
1
1
1
1
1
1
1
1
1
1
1
1
1
1
1
1
1
1
1
1
1
1
1
1
1
1
1
1
1
1
1
1
1
1
1
1
1
1
1
1
1
1
1
1
1
1
1
1
1
1
1
1
1
1
1
1
1
1
1
1
1
1
1
1
1
1
1
1
1
1
1
1
1
1
1
1
1
1
1
1
1
1
1
1
1
1
1
1
1
1
1
1
1
1
1
1
1
1
1
1
1
1
1
1
1
2
2
2
2
2
2
2
2
2
2
2
2
2
2
2
2
2
2
2
2
2
2
2
2
2
2
2
2
2
2
2
2
2
2
2
2
2
2
2
2
2
2
2
2
2
2
2
2
2
2
2
2
2
2
2
2
2
2
2
2
2
2
2
2
2
2
2
2
2
2
2
2
2
2
2
2
2
2
2
2
2
2
2
2
2
2
2
2
2
2
2
2
2
2
2
2
2
2
2
2
2
2
2
2
2
2
2
2
2
2
2
2
2
2
2
2
2
2
2
2
2
2
2
2
2
2
2
2
2
2
2
2
2
2
2
2
2
2
2
2
2
2
2
2
2
2
2
2
2
2
2
2
2
2
2
2
2
2
2
2
2
2
2
2
2
2
2
2
2
2
2
2
2
2
2
2
2
2
2
2
2
2
2
2
2
2
2
2
2
2
2
2
2
2
2
2
2
2
2
2
2
2
2
2
2
2
2
2
2
2
2
2
2
2
2
2
2
2
2
2
2
2
2
2
2
2
2
2
2
2
2
2
2
2
2
2
2
2
2
2
2
2
2
2
2
2
2
2
2
2
2
2
2
2
2
2
2
2
2
2
2
2
2
2
2
2
2
2
2
2
2
2
2
2
2
2
2
2
2
2
2
2
2
2
2
2
2
2
2
2
2
2
2
2
2
2
2
2
2
2
2
2
2
2
2
2
2
2
2
2
2
2
2
2
2
2
2
2
2
2
2
2
2
2
2
2
2
2
2
2
2
2
2
2
2
2
2
2
2
2
2
2
2
2
2
2
2
2
2
2
2
2
2
2
2
2
2
2
2
2
2
2
2
2
2
2
2
2
2
2
2
2
2
2
2
2
2
2
2
2
2
2
2
2
1
1
1
1
1
1
1
1
1
1
1
1
1
1
1
1
1
1
1
1
1
1
1
1
1
1
2
2
2
2
2
2
2
2
2
2
2
2
2
2
2
2
1
1
1
1
1
1
1
1
1
1
1
1
1
1
1
1
1
1
1
1
1
1
1
1
1
1
2
2
2
2
2
2
2
2
2
2
2
2
2
2
2
2
4
4
4
4
4
4
4
4
4
4
4
4
4
4
4
4
4
4
4
4
4
4
4
4
4
4
4
4
4
4
4
4
4
4
4
4
4
4
4
4
4
4
4
4
4
4
4
4
4
4
4
4
4
4
4
4
4
4
4
4
4
4
4
4
4
4
4
4
4
4
4
4
4
4
4
4
4
4
4
4
4
4
4
4
4
4
4
4
4
4
4
4
4
4
4
4
4
4
4
4
4
4
4
4
4
4
4
4
4
4
4
4
4
4
4
4
4
4
4
4
4
4
4
4
4
4
4
4
3
3
3
3
3
3
3
3
3
3
3
3
3
3
3
3
3
3
3
3
3
3
3
3
3
3
3
3
3
3
3
3
3
3
3
3
3
3
3
3
3
3
3
3
3
3
3
3
3
3
3
3
3
3
3
3
3
3
3
3
3
3
3
3
3
3
3
3
3
3
3
3
3
3
3
3
3
3
3
3
3
3
3
3
3
3
3
3
3
3
3
3
3
3
3
3
3
3
3
3
3
3
3
3
3
3
3
3
3
3
3
3
3
3
3
3
3
3
3
3
3
3
3
3
3
3
3
3
2
2
2
2
2
2
2
2
2
2
2
2
2
2
2
2
2
2
2
2
2
2
2
2
2
2
2
2
2
2
2
2
2
2
2
2
2
2
2
2
2
2
2
2
2
2
2
2
2
2
2
2
2
2
2
2
2
2
2
2
2
2
2
2
2
2
2
2
2
2
2
2
2
2
2
2
2
2
2
2
2
2
2
2
2
2
2
2
2
2
2
2
2
2
2
2
2
2
2
2
2
2
2
2
2
2
2
2
2
2
2
2
2
2
2
2
2
2
2
2
2
2
2
2
2
2
2
2

LOOKUP_TABLE FreeFempp_table 5
1.00000000 0.00000000 0.00000000 1.00000000
1.00000000 1.00000000 0.00000000 1.00000000
1.00000000 0.00000000 1.00000000 1.00000000
0.00000000 1.00000000 0.00000000 1.00000000
0.00000000 1.00000000 1.00000000 1.00000000

FIELD FieldData 2
init 3 1476 float
-1.12970948e+00 -1.05730927e+00 8.30265641e-01 -1.05290806e+00 -9.33453560e-01 8.18158746e-01 -1.05727935e+00 -9.23104882e-01 8.07810068e-01 -1.14621854e+00 -1.09639895e+00 8.76193583e-01 -1.06146896e+00 -9.76701975e-01 8.64953160e-01 -1.06584024e+00 -9.67327297e-01 8.55578482e-01 -1.16112757e+00 -1.13108373e+00 9.17053819e-01 -1.06941712e+00 -1.01566625e+00 9.07209694e-01 -1.07378840e+00 -1.00778759e+00 8.99331033e-01 -1.17367959e+00 -1.15951979e+00 9.50689137e-01 -1.07637799e+00 -1.04835546e+00 9.42782164e-01 -1.08074927e+00 -1.04250133e+00 9.36928093e-01 -1.18314588e+00 -1.17999554e+00 9.75085974e-01 -1.08196902e+00 -1.07286298e+00 9.69605565e-01 -1.08634043e+00 -1.06950569e+00 9.66248333e-01 -1.18891943e+00 -1.19116223e+00 9.88644063e-01 -1.08584428e+00 -1.08761168e+00 9.85959470e-01 -1.09021556e+00 -1.08709884e+00 9.85446632e-01 1.45021021e-01 -8.45655441e-01 9.90422428e-01 -9.87037942e-02 -1.09158957e+00 9.90723610e-01 -5.93223155e-01 -1.09408641e+00 9.93220448e-01 4.94129956e-01 -4.89986748e-01 9.80296075e-01 7.38244176e-01 -7.37928569e-01 9.83561456e-01 7.42615581e-01 -7.43386924e-01 9.89019811e-01 -1.09476221e+00 -1.09225655e+00 8.30265641e-01 -9.70906496e-01 -1.01545513e+00 8.18158746e-01 -1.01022518e+00 -9.70159113e-01 8.07810068e-01 -1.12251163e+00 -1.12010586e+00 8.76193583e-01 -1.00281465e+00 -1.03535616e+00 8.64953160e-01 -1.03089297e+00 -1.00227463e+00 8.55578482e-01 -1.14726484e+00 -1.14494646e+00 9.17053819e-01 -1.03184748e+00 -1.05323589e+00 9.07209694e-01 -1.05008149e+00 -1.03149450e+00 8.99331033e-01 -1.16772377e+00 -1.16547561e+00 9.50689137e-01 -1.05655944e+00 -1.06817400e+00 9.42782164e-01 -1.06688654e+00 -1.05636418e+00 9.36928093e-01 -1.18267047e+00 -1.18047094e+00 9.75085974e-01 -1.07553792e+00 -1.07929409e+00 9.69605565e-01 -1.08038461e+00 -1.07546151e+00 9.66248333e-01 -1.19112861e+00 -1.18895292e+00 9.88644063e-01 -1.08757818e+00 -1.08587778e+00 9.85959470e-01 -1.08974028e+00 -1.08757424e+00 9.85446632e-01 -3.47035050e-01 -3.53599399e-01 9.90422428e-01 -5.92969120e-01 -5.97324193e-01 9.90723610e-01 -5.95432401e-01 -1.09187710e+00 9.93220448e-01 5.33927651e-03 -1.19605847e-03 9.80296075e-01 -2.42602572e-01 2.42918178e-01 9.83561456e-01 2.50559479e-01 -2.51330882e-01 9.89019811e-01 1.06146896e+00 9.42014456e-01 8.30265641e-01 1.12970960e+00 1.04520237e+00 8.18158746e-01 1.05727935e+00 9.23104882e-01 8.07810068e-01 1.06941712e+00 9.84650135e-01 8.76193583e-01 1.14621854e+00 1.08515859e+00 8.64953160e-01 1.06584024e+00 9.67327297e-01 8.55578482e-01 1.07637799e+00 1.02262712e+00 9.17053819e-01 1.16112757e+00 1.12123954e+00 9.07209694e-01 1.07378840e+00 1.00778759e+00 8.99331033e-01 1.08196902e+00 1.05394650e+00 9.50689137e-01 1.17367959e+00 1.15161288e+00 9.42782164e-01 1.08074927e+00 1.04250145e+00 9.36928093e-01 1.08584428e+00 1.07673824e+00 9.75085974e-01 1.18314588e+00 1.17451525e+00 9.69605565e-01 1.08634043e+00 1.06950569e+00 9.66248333e-01 1.08774257e+00 1.08950996e+00 9.88644063e-01 1.18891943e+00 1.18847764e+00 9.85959470e-01 1.09021556e+00 1.08709884e+00 9.85446632e-01 -2.48096168e-01 7.44789541e-01 9.90422428e-01 3.45127016e-01 8.45956683e-01 9.90723610e-01 5.93223214e-01 1.09408641e+00 9.93220448e-01 -7.40553141e-01 7.35619605e-01 9.80296075e-01 -4.94129956e-01 4.93252128e-01 9.83561456e-01 -7.42615521e-01 7.43386924e-01 9.89019811e-01 5.52503228e-01 3.64135325e-01 8.30265641e-01 7.72865772e-01 5.86866617e-01 8.18158746e-01 7.77237117e-01 5.76517940e-01 8.07810068e-01 5.35994172e-01 4.03224975e-01 8.76193583e-01 7.64304876e-01 6.30114973e-01 8.64953160e-01 7.68676221e-01 6.20740294e-01 8.55578482e-01 5.21085143e-01 4.37909722e-01 9.17053819e-01 7.56356716e-01 6.69079244e-01 9.07209694e-01 7.60728061e-01 6.61200643e-01 8.99331033e-01 5.08533180e-01 4.66345847e-01 9.50689137e-01 7.49395847e-01 7.01768458e-01 9.42782164e-01 7.53767192e-01 6.95914388e-01 9.36928093e-01 4.99066889e-01 4.86821592e-01 9.75085974e-01 7.43804753e-01 7.26275980e-01 9.69605565e-01 7.48176098e-01 7.22918749e-01 9.66248333e-01 4.93293345e-01 4.97988224e-01 9.88644063e-01 7.39929557e-01 7.41024673e-01 9.85959470e-01 7.44300902e-01 7.40511835e-01 9.85446632e-01 -8.44017744e-01 8.45655441e-01 9.90422428e-01 -2.51007527e-01 7.45002508e-01 9.90723610e-01 2.43511841e-01 7.47499347e-01 9.93220448e-01 -1.18808281e+00 1.18316066e+00 9.80296075e-01 -1.08752954e+00 1.08451557e+00 9.83561456e-01 -1.09190094e+00 1.08997393e+00 9.89019811e-01 9.73024890e-02 -9.10653993e-02 8.30265641e-01 -1.25428796e-01 -3.11427951e-01 8.18158746e-01 3.34143311e-01 1.33424103e-01 8.07810068e-01 6.95530400e-02 -6.32161498e-02 8.76193583e-01 -1.57336980e-01 -2.91526854e-01 8.64953160e-01 3.13475519e-01 1.65539593e-01 8.55578482e-01 4.47998643e-02 -3.83755676e-02 9.17053819e-01 -1.86369687e-01 -2.73647130e-01 9.07209694e-01 2.94286937e-01 1.94759518e-01 8.99331033e-01 2.43409276e-02 -1.78464223e-02 9.50689137e-01 -2.11081699e-01 -2.58709073e-01 9.42782164e-01 2.77481943e-01 2.19629139e-01 9.36928093e-01 9.39422380e-03 -2.85105756e-03 9.75085974e-01 -2.30060160e-01 -2.47588933e-01 9.69605565e-01 2.63983846e-01 2.38726467e-01 9.66248333e-01 9.36067780e-04 5.63093508e-03 9.88644063e-01 -2.42100403e-01 -2.41005257e-01 9.85959470e-01 2.54628241e-01 2.50839204e-01 9.85446632e-01 -8.45925808e-01 8.43747377e-01 9.90422428e-01 -7.45272875e-01 2.50737190e-01 9.90723610e-01 -2.48845428e-01 2.55142093e-01 9.93220448e-01 -1.18672550e+00 1.18451810e+00 9.80296075e-01 -1.08808029e+00 1.08396482e+00 9.83561456e-01 -1.09380901e+00 1.08806586e+00 9.89019811e-01 -3.93186398e-02 4.52960059e-02 8.33889604e-01 4.59572107e-01 4.57066476e-01 8.21675181e-01 4.08146530e-01 4.90148038e-01 8.07702541e-01 -2.80782375e-02 3.30815986e-02 8.80024850e-01 4.70812500e-01 4.68406677e-01 8.68684590e-01 4.31493849e-01 4.90148038e-01 8.55478704e-01 -1.82340890e-02 2.17413921e-02 9.21072304e-01 4.80656654e-01 4.78338212e-01 9.11140740e-01 4.52578396e-01 4.90148038e-01 8.99243653e-01 -1.03270998e-02 1.18098380e-02 9.54865217e-01 4.88563627e-01 4.86315429e-01 9.46888030e-01 4.70329523e-01 4.90148038e-01 9.36857879e-01 -4.84670559e-03 3.83264269e-03 9.79380906e-01 4.94044036e-01 4.91844475e-01 9.73851860e-01 4.83716905e-01 4.90148038e-01 9.66199696e-01 -2.16208585e-03 -1.69641199e-03 9.93011534e-01 4.96728659e-01 4.94552940e-01 9.90303040e-01 4.91881937e-01 4.90148038e-01 9.85422790e-01 -2.46328325e-03 -4.94552910e-01 9.94810998e-01 -2.46328348e-03 4.10102075e-03 9.95114863e-01 4.94265348e-01 1.22389530e-08 9.93223131e-01 4.93162066e-01 -4.94249046e-01 9.84652996e-01 -5.72867133e-03 8.06614640e-04 9.87947404e-01 4.90698755e-01 -4.90148038e-01 9.89048779e-01 -5.52503228e-01 -3.64135325e-01 8.30265641e-01 -7.72865713e-01 -5.86866617e-01 8.18158746e-01 -7.77237117e-01 -5.76517880e-01 8.07810068e-01 -5.35994172e-01 -4.03224975e-01 8.76193583e-01 -7.64304876e-01 -6.30114973e-01 8.64953160e-01 -7.68676221e-01 -6.20740294e-01 8.55578482e-01 -5.21085143e-01 -4.37909693e-01 9.17053819e-01 -7.56356716e-01 -6.69079244e-01 9.07209694e-01 -7.60728061e-01 -6.61200643e-01 8.99331033e-01 -5.08533180e-01 -4.66345817e-01 9.50689137e-01 -7.49395847e-01 -7.01768458e-01 9.42782164e-01 -7.53767192e-01 -6.95914388e-01 9.36928093e-01 -4.99066859e-01 -4.86821592e-01 9.75085974e-01 -7.43804753e-01 -7.26275980e-01 9.69605565e-01 -7.48176098e-01 -7.22918689e-01 9.66248333e-01 -4.93293345e-01 -4.97988194e-01 9.88644063e-01 -7.39929497e-01 -7.41024673e-01 9.85959470e-01 -7.44300902e-01 -7.40511835e-01 9.85446632e-01 8.44017744e-01 -8.45655441e-01 9.90422428e-01 2.51007557e-01 -7.45002568e-01 9.90723610e-01 -2.43511826e-01 -7.47499347e-01 9.93220448e-01 1.18808281e+00 -1.18316078e+00 9.80296075e-01 1.08752954e+00 -1.08451557e+00 9.83561456e-01 1.09190094e+00 -1.08997393e+00 9.89019811e-01 1.09476221e+00 1.09225667e+00 8.30265641e-01 1.02233207e+00 9.70159113e-01 8.19916964e-01 9.70906556e-01 1.00324070e+00 8.05944324e-01 1.12251174e+00 1.12010586e+00 8.76193583e-01 1.04213333e+00 1.00227463e+00 8.66818905e-01 1.00281477e+00 1.02401602e+00 8.53612959e-01 1.14726484e+00 1.14494646e+00 9.17053819e-01 1.05992568e+00 1.03149450e+00 9.09175217e-01 1.03184748e+00 1.04330432e+00 8.97278130e-01 1.16772377e+00 1.16547561e+00 9.50689137e-01 1.07479358e+00 1.05636418e+00 9.44835067e-01 1.05655944e+00 1.06019676e+00 9.34804976e-01 1.18267047e+00 1.18047094e+00 9.75085974e-01 1.08586502e+00 1.07546151e+00 9.71728742e-01 1.07553792e+00 1.07376504e+00 9.64076519e-01 1.19112861e+00 1.18895292e+00 9.88644063e-01 1.09242487e+00 1.08757424e+00 9.88131225e-01 1.08757818e+00 1.08316934e+00 9.83250976e-01 3.47035080e-01 3.53599370e-01 9.90422428e-01 5.95131278e-01 6.01729095e-01 9.92919266e-01 1.09185982e+00 5.97628057e-01 9.91027474e-01 -5.33926440e-03 1.19604613e-03 9.80296075e-01 -2.53824860e-01 2.51330853e-01 9.85754430e-01 2.42602587e-01 -2.39623800e-01 9.86855865e-01 -9.73024741e-02 9.10654142e-02 8.30265641e-01 -3.22036356e-01 -1.33424073e-01 8.19916964e-01 1.25428796e-01 3.23642343e-01 8.05944324e-01 -6.95530325e-02 6.32161573e-02 8.76193583e-01 -3.02235097e-01 -1.65539578e-01 8.66818905e-01 1.57336995e-01 3.02867085e-01 8.53612959e-01 -4.47998531e-02 3.83755788e-02 9.17053819e-01 -2.84442782e-01 -1.94759503e-01 9.09175217e-01 1.86369702e-01 2.83578694e-01 8.97278130e-01 -2.43409146e-02 1.78464334e-02 9.50689137e-01 -2.69574910e-01 -2.19629109e-01 9.44835067e-01 2.11081713e-01 2.66686291e-01 9.34804976e-01 -9.39421169e-03 2.85106967e-03 9.75085974e-01 -2.58503437e-01 -2.38726452e-01 9.71728742e-01 2.30060175e-01 2.53118008e-01 9.64076519e-01 -9.36055556e-04 -5.63092297e-03 9.88644063e-01 -2.51943588e-01 -2.50839174e-01 9.88131225e-01 2.42100418e-01 2.43713722e-01 9.83250976e-01 8.45925808e-01 -8.43747437e-01 9.90422428e-01 2.48544261e-01 -7.45290101e-01 9.92919266e-01 2.46382147e-01 -2.51041085e-01 9.91027474e-01 1.18672550e+00 -1.18451810e+00 9.80296075e-01 1.09054363e+00 -1.08806586e+00 9.85754430e-01 1.08808029e+00 -1.08725929e+00 9.86855865e-01 -4.08146501e-01 -4.90148008e-01 8.32131386e-01 -4.47465152e-01 -4.44852024e-01 8.21782708e-01 5.14255837e-02 -3.30815613e-02 8.09568286e-01 -4.31493819e-01 -4.90148008e-01 8.78159106e-01 -4.59572077e-01 -4.57066417e-01 8.68784428e-01 3.93186733e-02 -2.17413548e-02 8.57444227e-01 -4.52578366e-01 -4.90148008e-01 9.19106781e-01 -4.70812470e-01 -4.68406647e-01 9.11228120e-01 2.80782711e-02 -1.18098017e-02 9.01296556e-01 -4.70329493e-01 -4.90148008e-01 9.52812314e-01 -4.80656624e-01 -4.78338182e-01 9.46958244e-01 1.82341244e-02 -3.83260590e-03 9.38981056e-01 -4.83716875e-01 -4.90148008e-01 9.77257788e-01 -4.88563597e-01 -4.86315370e-01 9.73900497e-01 1.03271352e-02 1.69644877e-03 9.68371451e-01 -4.91881907e-01 -4.90148008e-01 9.90839720e-01 -4.94044006e-01 -4.91844445e-01 9.90326881e-01 4.84674145e-03 4.40490479e-03 9.87618446e-01 -4.94265318e-01 -1.22933832e-08 9.92615402e-01 -4.96728629e-01 -4.94552910e-01 9.95112240e-01 -4.96728629e-01 4.10102075e-03 9.95416105e-01 -4.90698725e-01 4.90148008e-01 9.82460022e-01 2.46332004e-03 -4.10103286e-03 9.87918377e-01 -4.96427417e-01 4.90954638e-01 9.91212785e-01 -1.08158016e+00 -1.09729564e+00 7.83022106e-01 -9.78600085e-01 -1.02124929e+00 7.71803737e-01 -1.09721017e+00 -1.12414396e+00 7.75119007e-01 -1.11524117e+00 -1.12054110e+00 8.26311648e-01 -1.01611459e+00 -1.03713000e+00 8.15896213e-01 -1.13287008e+00 -1.14858556e+00 8.20902944e-01 -1.14513838e+00 -1.14131677e+00 8.64814520e-01 -1.04997730e+00 -1.05145574e+00 8.55692863e-01 -1.16555941e+00 -1.17085934e+00 8.62818360e-01 -1.16968691e+00 -1.15853858e+00 8.96496475e-01 -1.07846665e+00 -1.06349671e+00 8.89169812e-01 -1.19368291e+00 -1.18986130e+00 8.98812771e-01 -1.18741179e+00 -1.17118537e+00 9.19459820e-01 -1.09992743e+00 -1.07255268e+00 9.14381683e-01 -1.21565664e+00 -1.20450830e+00 9.26853478e-01 -1.19714749e+00 -1.17843342e+00 9.32197809e-01 -1.11298227e+00 -1.07804179e+00 9.29710209e-01 -1.23009908e+00 -1.21387267e+00 9.45174813e-01 -5.54051280e-01 -1.14776313e-01 9.33825970e-01 -7.70149827e-01 -3.12160850e-01 9.34105098e-01 -8.89444053e-01 -8.70729983e-01 9.52533424e-01 -2.48800874e-01 1.87448338e-01 9.24230039e-01 -4.66759861e-01 4.08764303e-01 9.27255809e-01 -2.42279842e-01 1.96995109e-01 9.48408604e-01 -1.09729564e+00 -1.08158016e+00 7.83022106e-01 -1.02124929e+00 -9.78600085e-01 7.71803737e-01 -1.12414396e+00 -1.09721017e+00 7.75119007e-01 -1.12054110e+00 -1.11524117e+00 8.26311648e-01 -1.03713000e+00 -1.01611459e+00 8.15896213e-01 -1.14858556e+00 -1.13287008e+00 8.20902944e-01 -1.14131677e+00 -1.14513838e+00 8.64814520e-01 -1.05145574e+00 -1.04997730e+00 8.55692863e-01 -1.17085934e+00 -1.16555941e+00 8.62818360e-01 -1.15853858e+00 -1.16968691e+00 8.96496475e-01 -1.06349671e+00 -1.07846665e+00 8.89169812e-01 -1.18986130e+00 -1.19368291e+00 8.98812771e-01 -1.17118537e+00 -1.18741179e+00 9.19459820e-01 -1.07255268e+00 -1.09992743e+00 9.14381683e-01 -1.20450830e+00 -1.21565664e+00 9.26853478e-01 -1.17843342e+00 -1.19714749e+00 9.32197809e-01 -1.07804179e+00 -1.11298227e+00 9.29710209e-01 -1.21387267e+00 -1.23009908e+00 9.45174813e-01 -1.14776313e-01 -5.54051280e-01 9.33825970e-01 -3.12160850e-01 -7.70149827e-01 9.34105098e-01 -8.70729983e-01 -8.89444053e-01 9.52533424e-01 1.87448338e-01 -2.48800874e-01 9.24230039e-01 4.08764303e-01 -4.66759861e-01 9.27255809e-01 1.96995109e-01 -2.42279842e-01 9.48408604e-01 -9.87789512e-01 -9.10193026e-01 7.98444211e-01 -1.09068418e+00 -1.02880311e+00 8.01759481e-01 -1.01388264e+00 -9.04947400e-01 7.89652526e-01 -9.95737672e-01 -9.51015353e-01 8.42558801e-01 -1.10719323e+00 -1.06777084e+00 8.47565532e-01 -1.02244353e+00 -9.48073924e-01 8.36325109e-01 -1.00269854e+00 -9.87357438e-01 8.81784141e-01 -1.12210226e+00 -1.10293949e+00 8.88909638e-01 -1.03039169e+00 -9.87522066e-01 8.79065454e-01 -1.00828969e+00 -1.01730382e+00 9.14046407e-01 -1.13465416e+00 -1.13252008e+00 9.23689365e-01 -1.03735256e+00 -1.02135575e+00 9.15782392e-01 -1.01216483e+00 -1.03906429e+00 9.37412024e-01 -1.14412045e+00 -1.15479338e+00 9.49883819e-01 -1.04294360e+00 -1.04766083e+00 9.44403410e-01 -1.01406312e+00 -1.05121291e+00 9.50347006e-01 -1.14989400e+00 -1.16832972e+00 9.65811610e-01 -1.04681885e+00 -1.06477916e+00 9.63127017e-01 2.43724808e-01 -7.06320226e-01 9.51953113e-01 -3.14844340e-01 -8.25614452e-01 9.70381439e-01 -5.58569193e-01 -1.07154858e+00 9.70682621e-01 6.66873813e-01 -6.97441041e-01 9.42117512e-01 4.55104589e-01 -4.72961038e-01 9.63270366e-01 6.99218810e-01 -7.20902860e-01 9.66535747e-01 -6.90625489e-01 -5.63606024e-01 7.98444211e-01 -5.13477862e-01 -3.35629135e-01 8.01759481e-01 -7.33840346e-01 -5.58360398e-01 7.89652526e-01 -6.82677329e-01 -6.04428351e-01 8.42558801e-01 -4.96968806e-01 -3.74596894e-01 8.47565532e-01 -7.25279510e-01 -6.01486921e-01 8.36325109e-01 -6.75716460e-01 -6.40770435e-01 8.81784141e-01 -4.82059777e-01 -4.09765512e-01 8.88909638e-01 -7.17331350e-01 -6.40935063e-01 8.79065454e-01 -6.70125365e-01 -6.70716822e-01 9.14046407e-01 -4.69507813e-01 -4.39346075e-01 9.23689365e-01 -7.10370481e-01 -6.74768686e-01 9.15782392e-01 -6.66250169e-01 -6.92477226e-01 9.37412024e-01 -4.60041493e-01 -4.61619437e-01 9.49883819e-01 -7.04779387e-01 -7.01073825e-01 9.44403410e-01 -6.64351821e-01 -7.04625905e-01 9.50347006e-01 -4.54267979e-01 -4.75155771e-01 9.65811610e-01 -7.00904131e-01 -7.18192220e-01 9.63127017e-01 5.93010187e-01 -1.05290723e+00 9.51953113e-01 3.84152383e-01 -8.25614452e-01 9.70381439e-01 -2.08857819e-01 -7.24961519e-01 9.70682621e-01 1.01154125e+00 -1.04402804e+00 9.42117512e-01 1.14905739e+00 -1.16613507e+00 9.63270366e-01 1.04850423e+00 -1.06748986e+00 9.66535747e-01 -4.56663966e-01 -3.42366844e-01 7.83022106e-01 -2.65289009e-01 -1.28617227e-01 7.71803737e-01 -2.87448853e-01 -1.06457368e-01 7.75119007e-01 -4.41350967e-01 -3.79313588e-01 8.26311648e-01 -2.42043465e-01 -1.63081095e-01 8.15896213e-01 -2.63007253e-01 -1.42117307e-01 8.20902944e-01 -4.27940130e-01 -4.12261486e-01 8.64814520e-01 -2.21267819e-01 -1.94272175e-01 8.55692863e-01 -2.40733430e-01 -1.74806565e-01 8.62818360e-01 -4.17168319e-01 -4.39481586e-01 8.96496475e-01 -2.04046026e-01 -2.20615596e-01 8.89169812e-01 -2.21731499e-01 -2.02930123e-01 8.98812771e-01 -4.09702301e-01 -4.59352434e-01 9.19459820e-01 -1.91399261e-01 -2.40589023e-01 9.14381683e-01 -2.07084462e-01 -2.24903822e-01 9.26853478e-01 -4.06044990e-01 -4.70575482e-01 9.32197809e-01 -1.84151158e-01 -2.52915293e-01 9.29710209e-01 -1.97720125e-01 -2.39346325e-01 9.45174813e-01 6.58550501e-01 -1.11653948e+00 9.33825970e-01 4.61363316e-01 -9.00917351e-01 9.34105098e-01 1.52311191e-01 -5.91865242e-01 9.52533424e-01 1.07494199e+00 -1.10878611e+00 9.24230039e-01 1.17513633e+00 -1.19357121e+00 9.27255809e-01 1.21459770e+00 -1.23303258e+00 9.48408604e-01 1.39835566e-01 2.65289009e-01 7.830