# vtk DataFile Version 2.0
Tornado8_5.vtk, Created by Freefem++ 
ASCII
DATASET UNSTRUCTURED_GRID
POINTS 198 float
-0.03535534 0.03535534 -0.12500000
-0.03535534 0.03535534 -0.04687500
-0.03535534 0.03535534 0.03125000
-0.03535534 0.03535534 0.10937500
-0.03535534 0.03535534 0.18750000
-0.03535534 0.03535534 0.26562500
-0.03535534 0.03535534 0.34375000
-0.03535534 0.03535534 0.42187500
-0.03535534 0.03535534 0.50000000
-0.10606602 0.10606602 -0.12500000
-0.10606602 0.10606602 -0.04687500
-0.10606602 0.10606602 0.03125000
-0.10606602 0.10606602 0.10937500
-0.10606602 0.10606602 0.18750000
-0.10606602 0.10606602 0.26562500
-0.10606602 0.10606602 0.34375000
-0.10606602 0.10606602 0.42187500
-0.10606602 0.10606602 0.50000000
0.00000000 0.05000000 -0.12500000
0.00000000 0.05000000 -0.04687500
0.00000000 0.05000000 0.03125000
0.00000000 0.05000000 0.10937500
0.00000000 0.05000000 0.18750000
0.00000000 0.05000000 0.26562500
0.00000000 0.05000000 0.34375000
0.00000000 0.05000000 0.42187500
0.00000000 0.05000000 0.50000000
0.00000000 0.15000001 -0.12500000
0.00000000 0.15000001 -0.04687500
0.00000000 0.15000001 0.03125000
0.00000000 0.15000001 0.10937500
0.00000000 0.15000001 0.18750000
0.00000000 0.15000001 0.26562500
0.00000000 0.15000001 0.34375000
0.00000000 0.15000001 0.42187500
0.00000000 0.15000001 0.50000000
-0.15000001 0.00000000 -0.12500000
-0.15000001 0.00000000 -0.04687500
-0.15000001 0.00000000 0.03125000
-0.15000001 0.00000000 0.10937500
-0.15000001 0.00000000 0.18750000
-0.15000001 0.00000000 0.26562500
-0.15000001 0.00000000 0.34375000
-0.15000001 0.00000000 0.42187500
-0.15000001 0.00000000 0.50000000
-0.05000000 0.00000000 -0.12500000
-0.05000000 0.00000000 -0.04687500
-0.05000000 0.00000000 0.03125000
-0.05000000 0.00000000 0.10937500
-0.05000000 0.00000000 0.18750000
-0.05000000 0.00000000 0.26562500
-0.05000000 0.00000000 0.34375000
-0.05000000 0.00000000 0.42187500
-0.05000000 0.00000000 0.50000000
-0.01178511 0.01178511 -0.12500000
-0.01178511 0.01178511 -0.04687500
-0.01178511 0.01178511 0.03125000
-0.01178511 0.01178511 0.10937500
-0.01178511 0.01178511 0.18750000
-0.01178511 0.01178511 0.26562500
-0.01178511 0.01178511 0.34375000
-0.01178511 0.01178511 0.42187500
-0.01178511 0.01178511 0.50000000
0.03535534 0.03535534 -0.12500000
0.03535534 0.03535534 -0.04687500
0.03535534 0.03535534 0.03125000
0.03535534 0.03535534 0.10937500
0.03535534 0.03535534 0.18750000
0.03535534 0.03535534 0.26562500
0.03535534 0.03535534 0.34375000
0.03535534 0.03535534 0.42187500
0.03535534 0.03535534 0.50000000
-0.50000000 0.00000000 -0.12500000
-0.50000000 0.00000000 -0.04687500
-0.50000000 0.00000000 0.03125000
-0.50000000 0.00000000 0.10937500
-0.50000000 0.00000000 0.18750000
-0.50000000 0.00000000 0.26562500
-0.50000000 0.00000000 0.34375000
-0.50000000 0.00000000 0.42187500
-0.50000000 0.00000000 0.50000000
0.00000000 0.50000000 -0.12500000
0.00000000 0.50000000 -0.04687500
0.00000000 0.50000000 0.03125000
0.00000000 0.50000000 0.10937500
0.00000000 0.50000000 0.18750000
0.00000000 0.50000000 0.26562500
0.00000000 0.50000000 0.34375000
0.00000000 0.50000000 0.42187500
0.00000000 0.50000000 0.50000000
0.10606602 0.10606602 -0.12500000
0.10606602 0.10606602 -0.04687500
0.10606602 0.10606602 0.03125000
0.10606602 0.10606602 0.10937500
0.10606602 0.10606602 0.18750000
0.10606602 0.10606602 0.26562500
0.10606602 0.10606602 0.34375000
0.10606602 0.10606602 0.42187500
0.10606602 0.10606602 0.50000000
-0.10606602 -0.10606602 -0.12500000
-0.10606602 -0.10606602 -0.04687500
-0.10606602 -0.10606602 0.03125000
-0.10606602 -0.10606602 0.10937500
-0.10606602 -0.10606602 0.18750000
-0.10606602 -0.10606602 0.26562500
-0.10606602 -0.10606602 0.34375000
-0.10606602 -0.10606602 0.42187500
-0.10606602 -0.10606602 0.50000000
-0.03535534 -0.03535534 -0.12500000
-0.03535534 -0.03535534 -0.04687500
-0.03535534 -0.03535534 0.03125000
-0.03535534 -0.03535534 0.10937500
-0.03535534 -0.03535534 0.18750000
-0.03535534 -0.03535534 0.26562500
-0.03535534 -0.03535534 0.34375000
-0.03535534 -0.03535534 0.42187500
-0.03535534 -0.03535534 0.50000000
0.01178511 -0.01178511 -0.12500000
0.01178511 -0.01178511 -0.04687500
0.01178511 -0.01178511 0.03125000
0.01178511 -0.01178511 0.10937500
0.01178511 -0.01178511 0.18750000
0.01178511 -0.01178511 0.26562500
0.01178511 -0.01178511 0.34375000
0.01178511 -0.01178511 0.42187500
0.01178511 -0.01178511 0.50000000
0.05000000 0.00000000 -0.12500000
0.05000000 0.00000000 -0.04687500
0.05000000 0.00000000 0.03125000
0.05000000 0.00000000 0.10937500
0.05000000 0.00000000 0.18750000
0.05000000 0.00000000 0.26562500
0.05000000 0.00000000 0.34375000
0.05000000 0.00000000 0.42187500
0.05000000 0.00000000 0.50000000
-0.00000000 -0.50000000 -0.12500000
-0.00000000 -0.50000000 -0.04687500
-0.00000000 -0.50000000 0.03125000
-0.00000000 -0.50000000 0.10937500
-0.00000000 -0.50000000 0.18750000
-0.00000000 -0.50000000 0.26562500
-0.00000000 -0.50000000 0.34375000
-0.00000000 -0.50000000 0.42187500
-0.00000000 -0.50000000 0.50000000
0.50000000 0.00000000 -0.12500000
0.50000000 0.00000000 -0.04687500
0.50000000 0.00000000 0.03125000
0.50000000 0.00000000 0.10937500
0.50000000 0.00000000 0.18750000
0.50000000 0.00000000 0.26562500
0.50000000 0.00000000 0.34375000
0.50000000 0.00000000 0.42187500
0.50000000 0.00000000 0.50000000
-0.00000000 -0.15000001 -0.12500000
-0.00000000 -0.15000001 -0.04687500
-0.00000000 -0.15000001 0.03125000
-0.00000000 -0.15000001 0.10937500
-0.00000000 -0.15000001 0.18750000
-0.00000000 -0.15000001 0.26562500
-0.00000000 -0.15000001 0.34375000
-0.00000000 -0.15000001 0.42187500
-0.00000000 -0.15000001 0.50000000
0.15000001 0.00000000 -0.12500000
0.15000001 0.00000000 -0.04687500
0.15000001 0.00000000 0.03125000
0.15000001 0.00000000 0.10937500
0.15000001 0.00000000 0.18750000
0.15000001 0.00000000 0.26562500
0.15000001 0.00000000 0.34375000
0.15000001 0.00000000 0.42187500
0.15000001 0.00000000 0.50000000
0.03535534 -0.03535534 -0.12500000
0.03535534 -0.03535534 -0.04687500
0.03535534 -0.03535534 0.03125000
0.03535534 -0.03535534 0.10937500
0.03535534 -0.03535534 0.18750000
0.03535534 -0.03535534 0.26562500
0.03535534 -0.03535534 0.34375000
0.03535534 -0.03535534 0.42187500
0.03535534 -0.03535534 0.50000000
-0.00000000 -0.05000000 -0.12500000
-0.00000000 -0.05000000 -0.04687500
-0.00000000 -0.05000000 0.03125000
-0.00000000 -0.05000000 0.10937500
-0.00000000 -0.05000000 0.18750000
-0.00000000 -0.05000000 0.26562500
-0.00000000 -0.05000000 0.34375000
-0.00000000 -0.05000000 0.42187500
-0.00000000 -0.05000000 0.50000000
0.10606602 -0.10606602 -0.12500000
0.10606602 -0.10606602 -0.04687500
0.10606602 -0.10606602 0.03125000
0.10606602 -0.10606602 0.10937500
0.10606602 -0.10606602 0.18750000
0.10606602 -0.10606602 0.26562500
0.10606602 -0.10606602 0.34375000
0.10606602 -0.10606602 0.42187500
0.10606602 -0.10606602 0.50000000

CELLS 1308 6144
4 133 134 70 124
4 70 125 124 134
4 70 125 134 71
4 132 133 69 123
4 69 124 123 133
4 69 124 133 70
4 131 132 68 122
4 68 123 122 132
4 68 123 132 69
4 130 131 67 121
4 67 122 121 131
4 67 122 131 68
4 129 130 66 120
4 66 121 120 130
4 66 121 130 67
4 128 129 65 119
4 65 120 119 129
4 65 120 129 66
4 127 128 64 118
4 64 119 118 128
4 64 119 128 65
4 126 127 63 117
4 63 118 117 127
4 63 118 127 64
4 61 62 25 7
4 25 26 7 62
4 7 8 62 26
4 60 61 24 6
4 24 25 6 61
4 6 7 61 25
4 59 60 23 5
4 23 24 5 60
4 5 6 60 24
4 58 59 22 4
4 22 23 4 59
4 4 5 59 23
4 57 58 21 3
4 21 22 3 58
4 3 4 58 22
4 56 57 20 2
4 20 21 2 57
4 2 3 57 21
4 55 56 19 1
4 19 20 1 56
4 1 2 56 20
4 54 55 18 0
4 18 19 0 55
4 0 1 55 19
4 61 62 7 52
4 7 53 52 62
4 7 53 62 8
4 60 61 6 51
4 6 52 51 61
4 6 52 61 7
4 59 60 5 50
4 5 51 50 60
4 5 51 60 6
4 58 59 4 49
4 4 50 49 59
4 4 50 59 5
4 57 58 3 48
4 3 49 48 58
4 3 49 58 4
4 56 57 2 47
4 2 48 47 57
4 2 48 57 3
4 55 56 1 46
4 1 47 46 56
4 1 47 56 2
4 54 55 0 45
4 0 46 45 55
4 0 46 55 1
4 115 116 61 52
4 61 62 52 116
4 52 53 116 62
4 114 115 60 51
4 60 61 51 115
4 51 52 115 61
4 113 114 59 50
4 59 60 50 114
4 50 51 114 60
4 112 113 58 49
4 58 59 49 113
4 49 50 113 59
4 111 112 57 48
4 57 58 48 112
4 48 49 112 58
4 110 111 56 47
4 56 57 47 111
4 47 48 111 57
4 109 110 55 46
4 55 56 46 110
4 46 47 110 56
4 108 109 54 45
4 54 55 45 109
4 45 46 109 55
4 124 125 70 61
4 70 71 61 125
4 61 62 125 71
4 123 124 69 60
4 69 70 60 124
4 60 61 124 70
4 122 123 68 59
4 68 69 59 123
4 59 60 123 69
4 121 122 67 58
4 67 68 58 122
4 58 59 122 68
4 120 121 66 57
4 66 67 57 121
4 57 58 121 67
4 119 120 65 56
4 65 66 56 120
4 56 57 120 66
4 118 119 64 55
4 64 65 55 119
4 55 56 119 65
4 117 118 63 54
4 63 64 54 118
4 54 55 118 64
4 133 179 124 178
4 133 134 124 179
4 124 179 134 125
4 132 178 123 177
4 132 133 123 178
4 123 178 133 124
4 131 177 122 176
4 131 132 122 177
4 122 177 132 123
4 130 176 121 175
4 130 131 121 176
4 121 176 131 122
4 129 175 120 174
4 129 130 120 175
4 120 175 130 121
4 128 174 119 173
4 128 129 119 174
4 119 174 129 120
4 127 173 118 172
4 127 128 118 173
4 118 173 128 119
4 126 172 117 171
4 126 127 117 172
4 117 172 127 118
4 70 71 25 61
4 25 62 61 71
4 25 62 71 26
4 69 70 24 60
4 24 61 60 70
4 24 61 70 25
4 68 69 23 59
4 23 60 59 69
4 23 60 69 24
4 67 68 22 58
4 22 59 58 68
4 22 59 68 23
4 66 67 21 57
4 21 58 57 67
4 21 58 67 22
4 65 66 20 56
4 20 57 56 66
4 20 57 66 21
4 64 65 19 55
4 19 56 55 65
4 19 56 65 20
4 63 64 18 54
4 18 55 54 64
4 18 55 64 19
4 115 125 124 61
4 115 125 61 116
4 61 62 116 125
4 114 124 123 60
4 114 124 60 115
4 60 61 115 124
4 113 123 122 59
4 113 123 59 114
4 59 60 114 123
4 112 122 121 58
4 112 122 58 113
4 58 59 113 122
4 111 121 120 57
4 111 121 57 112
4 57 58 112 121
4 110 120 119 56
4 110 120 56 111
4 56 57 111 120
4 109 119 118 55
4 109 119 55 110
4 55 56 110 119
4 108 118 117 54
4 108 118 54 109
4 54 55 109 118
4 124 188 187 178
4 124 188 178 179
4 124 179 125 188
4 123 187 186 177
4 123 187 177 178
4 123 178 124 187
4 122 186 185 176
4 122 186 176 177
4 122 177 123 186
4 121 185 184 175
4 121 185 175 176
[...]
CELL_DATA 1308
Scalars  Label int1
LOOKUP_TABLE FreeFempp_table
0
0
0
0
0
0
0
0
0
0
0
0
0
0
0
0
0
0
0
0
0
0
0
0
0
0
0
0
0
0
0
0
0
0
0
0
0
0
0
0
0
0
0
0
0
0
0
0
0
0
0
0
0
0
0
0
0
0
0
0
0
0
0
0
0
0
0
0
0
0
0
0
0
0
0
0
0
0
0
0
0
0
0
0
0
0
0
0
0
0
0
0
0
0
0
0
0
0
0
0
0
0
0
0
0
0
0
0
0
0
0
0
0
0
0
0
0
0
0
0
0
0
0
0
0
0
0
0
0
0
0
0
0
0
0
0
0
0
0
0
0
0
0
0
0
0
0
0
0
0
0
0
0
0
0
0
0
0
0
0
0
0
0
0
0
0
0
0
0
0
0
0
0
0
0
0
0
0
0
0
0
0
0
0
0
0
0
0
0
0
0
0
0
0
0
0
0
0
0
0
0
0
0
0
0
0
0
0
0
0
0
0
0
0
0
0
0
0
0
0
0
0
0
0
0
0
0
0
0
0
0
0
0
0
0
0
0
0
0
0
1
1
1
1
1
1
1
1
1
1
1
1
1
1
1
1
1
1
1
1
1
1
1
1
1
1
1
1
1
1
1
1
1
1
1
1
1
1
1
1
1
1
1
1
1
1
1
1
1
1
1
1
1
1
1
1
1
1
1
1
1
1
1
1
1
1
1
1
1
1
1
1
1
1
1
1
1
1
1
1
1
1
1
1
1
1
1
1
1
1
1
1
1
1
1
1
1
1
1
1
1
1
1
1
1
1
1
1
1
1
1
1
1
1
1
1
1
1
1
1
1
1
1
1
1
1
1
1
1
1
1
1
1
1
1
1
1
1
1
1
1
1
1
1
1
1
1
1
1
1
1
1
1
1
1
1
1
1
1
1
1
1
1
1
1
1
1
1
1
1
1
1
1
1
1
1
1
1
1
1
1
1
1
1
1
1
1
1
1
1
1
1
1
1
1
1
1
1
1
1
1
1
1
1
1
1
1
1
1
1
1
1
1
1
1
1
1
1
1
1
1
1
1
1
1
1
1
1
1
1
1
1
1
1
1
1
1
1
1
1
1
1
1
1
1
1
1
1
1
1
1
1
1
1
1
1
1
1
1
1
1
1
1
1
1
1
1
1
1
1
1
1
1
1
1
1
1
1
1
1
1
1
1
1
1
1
1
1
1
1
1
1
1
1
1
1
1
1
1
1
1
1
1
1
1
1
1
1
1
1
1
1
1
1
1
1
1
1
1
1
1
1
1
1
1
1
1
1
1
1
1
1
1
1
1
1
1
1
1
1
1
1
1
1
1
1
1
1
1
1
1
1
1
1
1
1
1
1
1
1
1
1
1
1
1
1
1
1
1
1
1
1
1
1
1
1
1
1
1
1
1
1
1
1
2
2
2
2
2
2
2
2
2
2
2
2
2
2
2
2
2
2
2
2
2
2
2
2
2
2
2
2
2
2
2
2
2
2
2
2
2
2
2
2
2
2
2
2
2
2
2
2
2
2
2
2
2
2
2
2
2
2
2
2
2
2
2
2
2
2
2
2
2
2
2
2
2
2
2
2
2
2
2
2
2
2
2
2
2
2
2
2
2
2
2
2
2
2
2
2
2
2
2
2
2
2
2
2
2
2
2
2
2
2
2
2
2
2
2
2
2
2
2
2
2
2
2
2
2
2
2
2
2
2
2
2
2
2
2
2
2
2
2
2
2
2
2
2
2
2
2
2
2
2
2
2
2
2
2
2
2
2
2
2
2
2
2
2
2
2
2
2
2
2
2
2
2
2
2
2
2
2
2
2
2
2
2
2
2
2
2
2
2
2
2
2
2
2
2
2
2
2
2
2
2
2
2
2
2
2
2
2
2
2
2
2
2
2
2
2
2
2
2
2
2
2
2
2
2
2
2
2
2
2
2
2
2
2
2
2
2
2
2
2
2
2
2
2
2
2
2
2
2
2
2
2
2
2
2
2
2
2
2
2
2
2
2
2
2
2
2
2
2
2
2
2
2
2
2
2
2
2
2
2
2
2
2
2
2
2
2
2
1
1
1
1
1
1
1
1
1
1
1
1
1
1
1
1
1
1
1
1
1
1
1
1
1
1
2
2
2
2
2
2
2
2
2
2
2
2
1
1
1
1
1
1
1
1
1
1
1
1
1
1
1
1
1
1
1
1
1
1
1
1
1
1
2
2
2
2
2
2
2
2
2
2
2
2
1
1
1
1
1
1
1
1
1
1
1
1
1
1
1
1
1
1
1
1
1
1
1
1
1
1
1
1
1
1
1
1
1
1
1
1
1
1
1
1
1
1
1
1
1
1
1
1
1
1
1
1
1
1
1
1
1
1
1
1
1
1
1
1
1
1
1
1
1
1
1
1
1
1
1
1
1
1
1
1
1
1
1
1
1
1
1
1
1
1
1
1
1
1
1
1
1
1
1
1
1
1
1
1
1
1
1
1
1
1
1
1
1
1
1
1
1
1
1
1
1
1
1
1
1
1
1
1
1
1
1
1
1
1
1
1
1
1
1
1
1
1
1
1
1
1
1
1
1
1
1
1
1
1
1
1
1
1
1
1
1
1
1
1
1
1
1
1
1
1
1
1
1
1
1
1
1
1
1
1
1
1
1
1
1
1
1
1
1
1
1
1
1
1
1
1
1
1
1
1
1
1
1
1
1
1
1
1
1
1
1
1
1
1
1
1
1
1
1
1
1
1
1
1
1
1
1
1
1
1
1
1
1
1
1
1
1
1
1
1
1
1
1
1
1
1
1
1
1
1
1
1
1
1
1
1
1
1
1
1
1
1
1
1
1
1
1
1
1
1
1
1
1
1
1
1
1
1
1
1
1
1
1
1
1
1
1
1
1
1
1
1
1
1
1
1
1
1
1
1
1
1
1
1
1
1
1
1
1
1
1
1
1
1
1
1
1
1
1
1

LOOKUP_TABLE FreeFempp_table 3
1.00000000 0.00000000 0.00000000 1.00000000
1.00000000 1.00000000 0.00000000 1.00000000
1.00000000 0.00000000 1.00000000 1.00000000

FIELD FieldData 2
NavSto 3 1308 float
-4.74866223e-11 -5.79093751e-09 5.94685989e-09 -4.74866223e-11 -5.79093751e-09 5.94685989e-09 -3.28043970e-42 -3.50202703e-40 3.96072807e-40 -8.46165915e-11 -8.56668159e-09 8.82483331e-09 -1.32103217e-10 -1.43576191e-08 1.47716932e-08 -4.74866223e-11 -5.79093751e-09 5.94685989e-09 -1.06153031e-10 -9.53459800e-09 9.84950077e-09 -1.90769622e-10 -1.81012805e-08 1.86743350e-08 -8.46165915e-11 -8.56668159e-09 8.82483331e-09 -1.11737786e-10 -9.70159242e-09 1.00288577e-08 -2.17890817e-10 -1.92361913e-08 1.98783585e-08 -1.06153031e-10 -9.53459800e-09 9.84950077e-09 -1.01941594e-10 -9.30616739e-09 9.60162616e-09 -2.13679380e-10 -1.90077589e-08 1.96304839e-08 -1.11737786e-10 -9.70159242e-09 1.00288577e-08 -7.70392639e-11 -7.85559973e-09 8.07472045e-09 -1.78980858e-10 -1.71617671e-08 1.76763475e-08 -1.01941594e-10 -9.30616739e-09 9.60162616e-09 -4.54530094e-11 -4.40203252e-09 4.51830395e-09 -1.22492266e-10 -1.22576322e-08 1.25930244e-08 -7.70392639e-11 -7.85559973e-09 8.07472045e-09 -1.84705151e-41 -3.68859591e-40 4.03058280e-40 -4.54530094e-11 -4.40203252e-09 4.51830395e-09 -4.54530094e-11 -4.40203252e-09 4.51830395e-09 -4.14915359e-11 -4.40418990e-09 4.51697391e-09 -3.78770975e-42 -6.96506994e-40 7.14030231e-40 -3.01979819e-42 -3.71702825e-40 3.88348850e-40 -1.11000403e-10 -1.22713475e-08 1.25954704e-08 -4.14915359e-11 -4.40418990e-09 4.51697391e-09 -4.14915359e-11 -4.40418990e-09 4.51697391e-09 -1.64948277e-10 -1.71885031e-08 1.76902688e-08 -6.95088639e-11 -7.86715759e-09 8.07849698e-09 -6.95088639e-11 -7.86715759e-09 8.07849698e-09 -2.02376421e-10 -1.90389198e-08 1.96542445e-08 -9.54394133e-11 -9.32134459e-09 9.61177182e-09 -9.54394133e-11 -9.32134459e-09 9.61177182e-09 -2.09997228e-10 -1.92682599e-08 1.99079544e-08 -1.06937001e-10 -9.71757519e-09 1.00424726e-08 -1.06937001e-10 -9.71757519e-09 1.00424726e-08 -1.86932719e-10 -1.81327238e-08 1.87087483e-08 -1.03060227e-10 -9.55068380e-09 9.86548088e-09 -1.03060227e-10 -9.55068380e-09 9.86548088e-09 -1.32570080e-10 -1.43848800e-08 1.48069832e-08 -8.38724923e-11 -8.58203908e-09 8.84326745e-09 -8.38724923e-11 -8.58203908e-09 8.84326745e-09 -4.86975876e-11 -5.80284132e-09 5.96371530e-09 -4.86975876e-11 -5.80284132e-09 5.96371530e-09 -4.86975876e-11 -5.80284132e-09 5.96371530e-09 -4.14915359e-11 -4.40418990e-09 4.51697391e-09 -1.29283796e-41 -6.86931921e-40 7.25732475e-40 -5.60799645e-42 -3.70134772e-40 3.94880302e-40 -1.11000403e-10 -1.22713475e-08 1.25954704e-08 -4.14915359e-11 -4.40418990e-09 4.51697391e-09 -4.14915359e-11 -4.40418990e-09 4.51697391e-09 -1.64948277e-10 -1.71885031e-08 1.76902688e-08 -6.95088639e-11 -7.86715759e-09 8.07849698e-09 -6.95088639e-11 -7.86715759e-09 8.07849698e-09 -2.02376421e-10 -1.90389198e-08 1.96542445e-08 -9.54394133e-11 -9.32134459e-09 9.61177182e-09 -9.54394133e-11 -9.32134459e-09 9.61177182e-09 -2.09997228e-10 -1.92682599e-08 1.99079544e-08 -1.06937001e-10 -9.71757519e-09 1.00424726e-08 -1.06937001e-10 -9.71757519e-09 1.00424726e-08 -1.86932719e-10 -1.81327238e-08 1.87087483e-08 -1.03060227e-10 -9.55068380e-09 9.86548088e-09 -1.03060227e-10 -9.55068380e-09 9.86548088e-09 -1.32570080e-10 -1.43848800e-08 1.48069832e-08 -8.38724923e-11 -8.58203908e-09 8.84326745e-09 -8.38724923e-11 -8.58203908e-09 8.84326745e-09 -4.86975876e-11 -5.80284132e-09 5.96371530e-09 -4.86975876e-11 -5.80284132e-09 5.96371530e-09 -4.86975876e-11 -5.80284132e-09 5.96371530e-09 -4.14915359e-11 -4.40418990e-09 4.51697391e-09 -4.14915359e-11 -4.40418990e-09 4.51697391e-09 -1.85433826e-41 -3.66042981e-40 4.03304908e-40 -6.95088639e-11 -7.86715759e-09 8.07849698e-09 -1.11000403e-10 -1.22713475e-08 1.25954704e-08 -4.14915359e-11 -4.40418990e-09 4.51697391e-09 -9.54394133e-11 -9.32134459e-09 9.61177182e-09 -1.64948277e-10 -1.71885031e-08 1.76902688e-08 -6.95088639e-11 -7.86715759e-09 8.07849698e-09 -1.06937001e-10 -9.71757519e-09 1.00424726e-08 -2.02376421e-10 -1.90389198e-08 1.96542445e-08 -9.54394133e-11 -9.32134459e-09 9.61177182e-09 -1.03060227e-10 -9.55068380e-09 9.86548088e-09 -2.09997228e-10 -1.92682599e-08 1.99079544e-08 -1.06937001e-10 -9.71757519e-09 1.00424726e-08 -8.38724923e-11 -8.58203908e-09 8.84326745e-09 -1.86932719e-10 -1.81327238e-08 1.87087483e-08 -1.03060227e-10 -9.55068380e-09 9.86548088e-09 -4.86975876e-11 -5.80284132e-09 5.96371530e-09 -1.32570080e-10 -1.43848800e-08 1.48069832e-08 -8.38724923e-11 -8.58203908e-09 8.84326745e-09 -1.60869064e-42 -3.52988484e-40 3.97174228e-40 -4.86975876e-11 -5.80284132e-09 5.96371530e-09 -4.86975876e-11 -5.80284132e-09 5.96371530e-09 -8.89781582e-11 -1.01951274e-08 1.04638334e-08 -4.14915359e-11 -4.40418990e-09 4.51697391e-09 -4.14915359e-11 -4.40418990e-09 4.51697391e-09 -2.01612088e-10 -2.22247767e-08 2.28501893e-08 -1.16995483e-10 -1.36580951e-08 1.40253560e-08 -1.58487029e-10 -1.80622859e-08 1.85423303e-08 -2.86209029e-10 -2.74226242e-08 2.82861059e-08 -1.80056012e-10 -1.78880253e-08 1.84366051e-08 -2.49564869e-10 -2.57551829e-08 2.65151030e-08 -3.24827804e-10 -2.89537656e-08 2.99208303e-08 -2.13090032e-10 -1.92521732e-08 1.98919743e-08 -3.08529452e-10 -2.85735169e-08 2.95037470e-08 -3.16739607e-10 -2.85584445e-08 2.94959648e-08 -2.14798013e-10 -1.92522762e-08 1.98943386e-08 -3.21735028e-10 -2.89698523e-08 2.99368104e-08 -2.62853350e-10 -2.57438053e-08 2.65196149e-08 -1.85814086e-10 -1.78882065e-08 1.84448936e-08 -2.88874313e-10 -2.74388903e-08 2.83103763e-08 -1.71189854e-10 -1.80604740e-08 1.85567401e-08 -1.25736851e-10 -1.36584406e-08 1.40384362e-08 -2.09609344e-10 -2.22404797e-08 2.28817036e-08 -4.54530094e-11 -4.40203252e-09 4.51830395e-09 -4.54530094e-11 -4.40203252e-09 4.51830395e-09 -9.41505970e-11 -1.02048743e-08 1.04820197e-08 -4.74866223e-11 -5.79093751e-09 5.94685989e-09 -4.74866223e-11 -5.79093751e-09 5.94685989e-09 -4.74866223e-11 -5.79093751e-09 5.94685989e-09 -8.46165915e-11 -8.56668159e-09 8.82483331e-09 -8.46165915e-11 -8.56668159e-09 8.82483331e-09 -1.32103217e-10 -1.43576191e-08 1.47716932e-08 -1.06153031e-10 -9.53459800e-09 9.84950077e-09 -1.06153031e-10 -9.53459800e-09 9.84950077e-09 -1.90769622e-10 -1.81012805e-08 1.86743350e-08 -1.11737786e-10 -9.70159242e-09 1.00288577e-08 -1.11737786e-10 -9.70159242e-09 1.00288577e-08 -2.17890817e-10 -1.92361913e-08 1.98783585e-08 -1.01941594e-10 -9.30616739e-09 9.60162616e-09 -1.01941594e-10 -9.30616739e-09 9.60162616e-09 -2.13679380e-10 -1.90077589e-08 1.96304839e-08 -7.70392639e-11 -7.85559973e-09 8.07472045e-09 -7.70392639e-11 -7.85559973e-09 8.07472045e-09 -1.78980858e-10 -1.71617671e-08 1.76763475e-08 -4.54530094e-11 -4.40203252e-09 4.51830395e-09 -4.54530094e-11 -4.40203252e-09 4.51830395e-09 -1.22492266e-10 -1.22576322e-08 1.25930244e-08 -5.61640425e-42 -4.41798577e-40 4.68444268e-40 -1.38420262e-41 -7.60434230e-40 7.98409418e-40 -4.54530094e-11 -4.40203252e-09 4.51830395e-09 -4.14915359e-11 -4.40418990e-09 4.51697391e-09 -4.14915359e-11 -4.40418990e-09 4.51697391e-09 -2.79138654e-42 -3.74027580e-40 3.85864348e-40 -6.95088639e-11 -7.86715759e-09 8.07849698e-09 -1.11000403e-10 -1.22713475e-08 1.25954704e-08 -4.14915359e-11 -4.40418990e-09 4.51697391e-09 -9.54394133e-11 -9.32134459e-09 9.61177182e-09 -1.64948277e-10 -1.71885031e-08 1.76902688e-08 -6.95088639e-11 -7.86715759e-09 8.07849698e-09 -1.06937001e-10 -9.71757519e-09 1.00424726e-08 -2.02376421e-10 -1.90389198e-08 1.96542445e-08 -9.54394133e-11 -9.32134459e-09 9.61177182e-09 -1.03060227e-10 -9.55068380e-09 9.86548088e-09 -2.09997228e-10 -1.92682599e-08 1.99079544e-08 -1.06937001e-10 -9.71757519e-09 1.00424726e-08 -8.38724923e-11 -8.58203908e-09 8.84326745e-09 -1.86932719e-10 -1.81327238e-08 1.87087483e-08 -1.03060227e-10 -9.55068380e-09 9.86548088e-09 -4.86975876e-11 -5.80284132e-09 5.96371530e-09 -1.32570080e-10 -1.43848800e-08 1.48069832e-08 -8.38724923e-11 -8.58203908e-09 8.84326745e-09 -2.77793408e-41 -3.73418015e-40 4.17088080e-40 -4.86975876e-11 -5.80284132e-09 5.96371530e-09 -4.86975876e-11 -5.80284132e-09 5.96371530e-09 -8.89781582e-11 -1.01951274e-08 1.04638334e-08 -4.14915359e-11 -4.40418990e-09 4.51697391e-09 -4.14915359e-11 -4.40418990e-09 4.51697391e-09 -2.01612088e-10 -2.22247767e-08 2.28501893e-08 -1.16995483e-10 -1.36580951e-08 1.40253560e-08 -1.58487029e-10 -1.80622859e-08 1.85423303e-08 -2.86209029e-10 -2.74226242e-08 2.82861059e-08 -1.80056012e-10 -1.78880253e-08 1.84366051e-08 -2.49564869e-10 -2.57551829e-08 2.65151030e-08 -3.24827804e-10 -2.89537656e-08 2.99208303e-08 -2.13090032e-10 -1.92521732e-08 1.98919743e-08 -3.08529452e-10 -2.85735169e-08 2.95037470e-08 -3.16739607e-10 -2.85584445e-08 2.94959648e-08 -2.14798013e-10 -1.92522762e-08 1.98943386e-08 -3.21735028e-10 -2.89698523e-08 2.99368104e-08 -2.62853350e-10 -2.57438053e-08 2.65196149e-08 -1.85814086e-10 -1.78882065e-08 1.84448936e-08 -2.88874313e-10 -2.74388903e-08 2.83103763e-08 -1.71189854e-10 -1.80604740e-08 1.85567401e-08 -1.25736851e-10 -1.36584406e-08 1.40384362e-08 -2.09609344e-10 -2.22404797e-08 2.28817036e-08 -4.54530094e-11 -4.40203252e-09 4.51830395e-09 -4.54530094e-11 -4.40203252e-09 4.51830395e-09 -9.41505970e-11 -1.02048743e-08 1.04820197e-08 -4.74866223e-11 -5.79093751e-09 5.94685989e-09 -4.74866223e-11 -5.79093751e-09 5.94685989e-09 -4.74866223e-11 -5.79093751e-09 5.94685989e-09 -8.46165915e-11 -8.56668159e-09 8.82483331e-09 -8.46165915e-11 -8.56668159e-09 8.82483331e-09 -1.32103217e-10 -1.43576191e-08 1.47716932e-08 -1.06153031e-10 -9.53459800e-09 9.84950077e-09 -1.06153031e-10 -9.53459800e-09 9.84950077e-09 -1.90769622e-10 -1.81012805e-08 1.86743350e-08 -1.11737786e-10 -9.70159242e-09 1.00288577e-08 -1.11737786e-10 -9.70159242e-09 1.00288577e-08 -2.17890817e-10 -1.92361913e-08 1.98783585e-08 -1.01941594e-10 -9.30616739e-09 9.60162616e-09 -1.01941594e-10 -9.30616739e-09 9.60162616e-09 -2.13679380e-10 -1.90077589e-08 1.96304839e-08 -7.70392639e-11 -7.85559973e-09 8.07472045e-09 -7.70392639e-11 -7.85559973e-09 8.07472045e-09 -1.78980858e-10 -1.71617671e-08 1.76763475e-08 -4.54530094e-11 -4.40203252e-09 4.51830395e-09 -4.54530094e-11 -4.40203252e-09 4.51830395e-09 -1.22492266e-10 -1.22576322e-08 1.25930244e-08 -3.14731635e-42 -4.36781929e-40 4.49358582e-40 -4.02593049e-42 -6.95423790e-40 7.17935650e-40 -4.54530094e-11 -4.40203252e-09 4.51830395e-09 -4.74866223e-11 -5.79093751e-09 5.94685989e-09 -4.74866223e-11 -5.79093751e-09 5.94685989e-09 -2.71445526e-41 -4.66143335e-40 5.12415612e-40 -8.46165915e-11 -8.56668159e-09 8.82483331e-09 -1.32103217e-10 -1.43576191e-08 1.47716932e-08 -4.74866223e-11 -5.79093751e-09 5.94685989e-09 -1.06153031e-10 -9.53459800e-09 9.84950077e-09 -1.90769622e-10 -1.81012805e-08 1.86743350e-08 -8.46165915e-11 -8.56668159e-09 8.82483331e-09 -1.11737786e-10 -9.70159242e-09 1.00288577e-08 -2.17890817e-10 -1.92361913e-08 1.98783585e-08 -1.06153031e-10 -9.53459800e-09 9.84950077e-09 -1.01941594e-10 -9.30616739e-09 9.60162616e-09 -2.13679380e-10 -1.90077589e-08 1.96304839e-08 -1.11737786e-10 -9.70159242e-09 1.00288577e-08 -7.70392639e-11 -7.85559973e-09 8.07472045e-09 -1.78980858e-10 -1.71617671e-08 1.76763475e-08 -1.01941594e-10 -9.30616739e-09 9.60162616e-09 -4.54530094e-11 -4.40203252e-09 4.51830395e-09 -1.22492266e-10 -1.22576322e-08 1.25930244e-08 -7.70392639e-11 -7.85559973e-09 8.07472045e-09 -2.09774380e-42 -3.02913084e-40 3.14964251e-40 -4.54530094e-11 -4.40203252e-09 4.51830395e-09 -4.54530094e-11 -4.40203252e-09 4.51830395e-09 6.71362094e-42 -2.13662983e-40 2.27783868e-40 1.03387801e-41 -7.67421104e-41 9.40565542e-41 -6.08163534e-43 1.39801943e-40 -1.39474039e-40 -1.57225688e-42 -3.93483207e-40 4.12482012e-40 5.70748865e-42 -6.11588307e-40 6.42240310e-40 -5.48608349e-42 -2.17358207e-40 2.23490289e-40 -8.87442317e-42 -4.60341960e-40 4.84114988e-40 -4.25294084e-42 -8.56619356e-40 9.00600510e-40 -1.72822140e-41 -3.99134644e-40 4.11220843e-40 -1.37341262e-41 -4.82210624e-40 5.07942667e-40 -1.12103877e-41 -9.44137452e-40 9.95335293e-40 -2.50496113e-41 -4.66876215e-40 4.83637145e-40 -1.71266698e-41 -4.88317482e-40 5.12652431e-40 -1.60140389e-41 -9.71471180e-40 1.02315807e-39 -2.91287912e-41 -4.89046158e-40 5.08185092e-40 -1.98816226e-41 -4.64963442e-40 4.84129001e-40 -1.98914317e-41 -9.53915713e-40 9.98628344e-40 -3.04362026e-41 -4.94735429e-40 5.13830923e-40 -2.23128754e-41 -3.17042376e-40 3.30246812e-40 -2.40406765e-41 -7.82906853e-40 8.15012002e-40 -2.97509677e-41 -4.70394875e-40 4.85762915e-40 -9.27659583e-42 4.16325774e-42 1.54100792e-41 -1.58781129e-41 -3.13607794e-40 3.43808578e-40 -2.42774959e-41 -3.19033621e-40 3.41595928e-40 4.62848883e-42 -3.04992611e-40 3.33616934e-40 -6.31845478e-42 -8.84485578e-41 1.00084940e-40 6.31985607e-43 4.78263166e-41 -3.16651414e-41 -8.43301416e-42 -9.10402593e-40 9.60315443e-40 -1.96265863e-41 -5.16172493e-40 5.41565423e-40 -1.31371731e-41 -7.40727770e-40 7.85417980e-40 -2.27164494e-41 -1.17133277e-39 1.23979742e-39 -3.57457225e-41 -7.13846661e-40 7.50417748e-40 -3.41748669e-41 -1.00700951e-39 1.06975265e-39 -3.11732856e-41 -1.26091358e-39 1.33827787e-39 -4.50139106e-41 -7.83650943e-40 8.26579721e-40 -4.73008297e-41 -1.09183011e-39 1.16625447e-39 -3.56518355e-41 -1.28736729e-39 1.36377449e-39 -4.87665879e-41 -8.04942272e-40 8.48802914e-40 -5.33362221e-41 -1.11488147e-39 1.19150166e-39 -3.74777274e-41 -1.25553540e-39 1.32039450e-39 -4.80224984e-41 -7.96355115e-40 8.35597077e-40 -5.43507622e-41 -1.10583328e-39 1.17503641e-39 -3.76893235e-41 -1.01768881e-39 1.06205952e-39 -4.33996147e-41 -7.05178229e-40 7.32811835e-40 -5.11151641e-41 -1.00136648e-39 1.05294407e-39 -1.82841424e-41 -1.81626498e-40 2.14824660e-40 -2.66835254e-41 -1.87050924e-40 2.12612009e-40 -3.83675520e-41 -4.19843033e-40 4.48310411e-40 -1.29493991e-41 -5.51038200e-40 5.59658988e-40 -5.99895873e-42 -4.14763326e-40 4.27908907e-40 -1.14065695e-42 -1.86846335e-40 1.82711103e-40 -2.89073860e-41 -7.84949946e-40 7.92340395e-40 -2.24179728e-41 -1.00950522e-39 1.03619155e-39 -1.12832552e-41 -1.03636111e-39 1.04396455e-39 -4.38816614e-41 -8.38416489e-40 8.46430515e-40 -4.23122071e-41 -1.13157934e-39 1.16576542e-39 -2.58497528e-41 -1.30374987e-39 1.30710178e-39 -5.16490588e-41 -8.41788013e-40 8.49846881e-40 -5.39373792e-41 -1.14996718e-39 1.18952023e-39 -3.74889378e-41 -1.35403967e-39 1.35907734e-39 -5.35436143e-41 -8.21910595e-40 8.27825476e-40 -5.81132486e-41 -1.13184979e-39 1.17052563e-39 -4.25868616e-41 -1.33601898e-39 1.34056759e-39 -5.03934954e-41 -7.40007502e-40 7.41946899e-40 -5.67217592e-41 -1.04948427e-39 1.08138623e-39 -4.27998590e-41 -1.24798660e-39 1.24914688e-39 -4.19408630e-41 -4.87682694e-40 4.83153698e-40 -4.96564124e-41 -7.83870947e-40 8.03285937e-40 -3.83899727e-41 -9.81690850e-40 9.77086183e-40 -2.02922031e-41 2.54348283e-40 -2.41715577e-40 -3.19748284e-41 2.15561743e-41 -6.01717561e-42 -2.98392495e-41 -3.58795465e-40 3.58075198e-40 -7.99580904e-42 -3.30597136e-40 3.15933949e-40 -1.40269976e-42 -3.32432837e-40 3.14752655e-40 -1.49798806e-42 -3.24956910e-40 3.13281291e-40 -1.63209232e-41 -4.99980489e-40 4.72694406e-40 -4.87651866e-42 -5.04094702e-40 4.72820523e-40 -6.32826386e-42 -8.15920044e-40 8.00239514e-40 -2.64663241e-41 -5.41293571e-40 5.06517547e-40 -1.23104070e-41 -5.49485562e-40 5.06207860e-40 -1.32646913e-41 -1.01878042e-39 9.87455791e-40 -3.22172530e-41 -5.44254514e-40 5.06867871e-40 -1.70888348e-41 -5.55310759e-40 5.06629651e-40 -2.00721992e-41 -1.05691676e-39 1.01916577e-39 -3.40235267e-41 -5.25220677e-40 4.87895692e-40 -1.91613552e-41 -5.37627774e-40 4.87615432e-40 -2.31550558e-41 -1.03848548e-39 9.97587179e-40 -3.25157296e-41 -4.55754109e-40 4.21817462e-40 -1.93225045e-41 -4.68542358e-40 4.21328409e-40 -2.32811727e-41 -9.51296686e-40 9.09217094e-40 -2.71907954e-41 -2.66713341e-40 2.38115642e-40 -1.70285789e-41 -2.78648200e-40 2.38119845e-40 -2.05108056e-41 -6.97437456e-40 6.56958147e-40 -1.60574791e-41 1.17161163e-40 -1.05097385e-40 -1.29914381e-41 1.05337007e-40 -1.14437039e-40 -1.50891819e-41 -1.37824710e-40 1.13037142e-40 5.21142899e-42 -3.30901218e-40 3.17556653e-40 5.11614069e-42 -3.23425291e-40 3.16083888e-40 6.85094819e-42 1.23314265e-42 -1.19418655e-41 9.61851266e-42 -5.03876099e-40 4.72531855e-40 8.16676745e-42 -8.15700040e-40 7.99949445e-40 1.31147523e-41 -3.28846915e-40 3.18446477e-40 1.04789099e-41 -5.49247341e-40 5.06210662e-40 9.52462566e-42 -1.01854220e-39 9.87458594e-40 2.09634250e-41 -4.99522265e-40 4.72407140e-40 1.06148359e-41 -5.55121584e-40 5.06713729e-40 7.63007014e-42 -1.05672758e-39 1.01924845e-39 2.40266635e-41 -5.40867576e-40 5.06604427e-40 1.04480814e-41 -5.37543696e-40 4.87710720e-40 6.45438073e-42 -1.03840140e-39 9.97682468e-40 2.50944529e-41 -5.43984064e-40 5.07045836e-40 9.62271655e-42 -4.68630640e-40 4.21490960e-40 5.66544969e-42 -9.51384968e-40 9.09379645e-40 2.45311309e-41 -5.25226283e-40 4.88153530e-40 8.28027263e-42 -2.78922854e-40 2.38331442e-40 4.79664464e-42 -6.97713512e-40 6.57169743e-40 2.17397444e-41 -4.56117045e-40 4.22193010e-40 3.44018773e-42 1.05718160e-40 -1.04052016e-40 1.34384523e-42 -1.37444959e-40 1.23423566e-40 1.45496820e-41 -2.66608243e-40 2.48713662e-40 4.47574730e-42 -5.07794130e-40 5.13680985e-40 6.21055479e-42 -1.83135696e-40 1.85655231e-40 1.85812176e-42 -1.84105395e-40 1.86858946e-40 1.02547022e-41 -1.24011131e-39 1.24535496e-39 1.52026870e-41 -7.53258180e-40 7.63851997e-