# vtk DataFile Version 2.0
Tornado_init.vtk, Created by Freefem++ 
ASCII
DATASET UNSTRUCTURED_GRID
POINTS 60 float
0.10000000 0.00000000 -0.12500000
0.10000000 0.00000000 0.03125000
0.10000000 0.00000000 0.18750000
0.10000000 0.00000000 0.34375000
0.10000000 0.00000000 0.50000000
0.00000000 0.10000000 -0.12500000
0.00000000 0.10000000 0.03125000
0.00000000 0.10000000 0.18750000
0.00000000 0.10000000 0.34375000
0.00000000 0.10000000 0.50000000
-0.10000000 0.00000000 -0.12500000
-0.10000000 0.00000000 0.03125000
-0.10000000 0.00000000 0.18750000
-0.10000000 0.00000000 0.34375000
-0.10000000 0.00000000 0.50000000
-0.00000000 -0.10000000 -0.12500000
-0.00000000 -0.10000000 0.03125000
-0.00000000 -0.10000000 0.18750000
-0.00000000 -0.10000000 0.34375000
-0.00000000 -0.10000000 0.50000000
0.40000001 0.00000000 -0.12500000
0.40000001 0.00000000 0.03125000
0.40000001 0.00000000 0.18750000
0.40000001 0.00000000 0.34375000
0.40000001 0.00000000 0.50000000
0.00000000 0.40000001 -0.12500000
0.00000000 0.40000001 0.03125000
0.00000000 0.40000001 0.18750000
0.00000000 0.40000001 0.34375000
0.00000000 0.40000001 0.50000000
-0.40000001 0.00000000 -0.12500000
-0.40000001 0.00000000 0.03125000
-0.40000001 0.00000000 0.18750000
-0.40000001 0.00000000 0.34375000
-0.40000001 0.00000000 0.50000000
-0.00000000 -0.40000001 -0.12500000
-0.00000000 -0.40000001 0.03125000
-0.00000000 -0.40000001 0.18750000
-0.00000000 -0.40000001 0.34375000
-0.00000000 -0.40000001 0.50000000
1.00000000 0.00000000 -0.12500000
1.00000000 0.00000000 0.03125000
1.00000000 0.00000000 0.18750000
1.00000000 0.00000000 0.34375000
1.00000000 0.00000000 0.50000000
0.00000000 1.00000000 -0.12500000
0.00000000 1.00000000 0.03125000
0.00000000 1.00000000 0.18750000
0.00000000 1.00000000 0.34375000
0.00000000 1.00000000 0.50000000
-1.00000000 0.00000000 -0.12500000
-1.00000000 0.00000000 0.03125000
-1.00000000 0.00000000 0.18750000
-1.00000000 0.00000000 0.34375000
-1.00000000 0.00000000 0.50000000
-0.00000000 -1.00000000 -0.12500000
-0.00000000 -1.00000000 0.03125000
-0.00000000 -1.00000000 0.18750000
-0.00000000 -1.00000000 0.34375000
-0.00000000 -1.00000000 0.50000000

CELLS 348 1608
4 8 19 18 3
4 8 19 3 9
4 3 4 9 19
4 7 18 17 2
4 7 18 2 8
4 2 3 8 18
4 6 17 16 1
4 6 17 1 7
4 1 2 7 17
4 5 16 15 0
4 5 16 0 6
4 0 1 6 16
4 13 19 18 8
4 13 19 8 14
4 8 9 14 19
4 12 18 17 7
4 12 18 7 13
4 7 8 13 18
4 11 17 16 6
4 11 17 6 12
4 6 7 12 17
4 10 16 15 5
4 10 16 5 11
4 5 6 11 16
4 8 29 23 28
4 8 24 23 29
4 8 29 9 24
4 7 28 22 27
4 7 23 22 28
4 7 28 8 23
4 6 27 21 26
4 6 22 21 27
4 6 27 7 22
4 5 26 20 25
4 5 21 20 26
4 5 26 6 21
4 8 24 3 23
4 8 9 3 24
4 3 24 9 4
4 7 23 2 22
4 7 8 2 23
4 2 23 8 3
4 6 22 1 21
4 6 7 1 22
4 1 22 7 2
4 5 21 0 20
4 5 6 0 21
4 0 21 6 1
4 3 24 18 23
4 3 19 18 24
4 3 24 4 19
4 2 23 17 22
4 2 18 17 23
4 2 23 3 18
4 1 22 16 21
4 1 17 16 22
4 1 22 2 17
4 0 21 15 20
4 0 16 15 21
4 0 21 1 16
4 18 39 38 23
4 18 39 23 24
4 18 24 19 39
4 17 38 37 22
4 17 38 22 23
4 17 23 18 38
4 16 37 36 21
4 16 37 21 22
4 16 22 17 37
4 15 36 35 20
4 15 36 20 21
4 15 21 16 36
4 18 39 33 38
4 18 34 33 39
4 18 39 19 34
4 17 38 32 37
4 17 33 32 38
4 17 38 18 33
4 16 37 31 36
4 16 32 31 37
4 16 37 17 32
4 15 36 30 35
4 15 31 30 36
4 15 36 16 31
4 33 34 18 13
4 18 19 13 34
4 13 14 34 19
4 32 33 17 12
4 17 18 12 33
4 12 13 33 18
4 31 32 16 11
4 16 17 11 32
4 11 12 32 17
4 30 31 15 10
4 15 16 10 31
4 10 11 31 16
4 33 34 13 8
4 13 14 8 34
4 8 9 34 14
4 32 33 12 7
4 12 13 7 33
4 7 8 33 13
4 31 32 11 6
4 11 12 6 32
4 6 7 32 12
4 30 31 10 5
4 10 11 5 31
4 5 6 31 11
4 33 34 8 28
4 8 29 28 34
4 8 29 34 9
4 32 33 7 27
4 7 28 27 33
4 7 28 33 8
4 31 32 6 26
4 6 27 26 32
4 6 27 32 7
4 30 31 5 25
4 5 26 25 31
4 5 26 31 6
4 43 49 48 23
4 43 49 23 44
4 23 24 44 49
4 42 48 47 22
4 42 48 22 43
4 22 23 43 48
4 41 47 46 21
4 41 47 21 42
4 21 22 42 47
4 40 46 45 20
4 40 46 20 41
4 20 21 41 46
4 28 49 23 48
4 28 29 23 49
4 23 49 29 24
4 27 48 22 47
4 27 28 22 48
4 22 48 28 23
4 26 47 21 46
4 26 27 21 47
4 21 47 27 22
4 25 46 20 45
4 25 26 20 46
4 20 46 26 21
4 33 49 28 48
4 33 34 28 49
4 28 49 34 29
4 32 48 27 47
4 32 33 27 48
4 27 48 33 28
4 31 47 26 46
4 31 32 26 47
4 26 47 32 27
4 30 46 25 45
4 30 31 25 46
4 25 46 31 26
4 48 54 53 33
4 48 54 33 49
4 33 34 49 54
4 47 53 52 32
4 47 53 32 48
4 32 33 48 53
4 46 52 51 31
4 46 52 31 47
4 31 32 47 52
4 45 51 50 30
4 45 51 30 46
4 30 31 46 51
4 33 54 53 38
4 33 54 38 39
4 33 39 34 54
4 32 53 52 37
4 32 53 37 38
4 32 38 33 53
4 31 52 51 36
4 31 52 36 37
4 31 37 32 52
4 30 51 50 35
4 30 51 35 36
4 30 36 31 51
4 53 59 58 38
4 53 59 38 54
4 38 39 54 59
4 52 58 57 37
4 52 58 37 53
4 37 38 53 58
4 51 57 56 36
4 51 57 36 52
4 36 37 52 57
4 50 56 55 35
4 50 56 35 51
4 35 36 51 56
4 38 59 58 23
4 38 59 23 39
4 23 24 39 59
4 37 58 57 22
4 37 58 22 38
4 22 23 38 58
4 36 57 56 21
4 36 57 21 37
4 21 22 37 57
4 35 56 55 20
4 35 56 20 36
4 20 21 36 56
4 58 59 43 23
4 43 44 23 59
4 23 24 59 44
4 57 58 42 22
4 42 43 22 58
4 22 23 58 43
4 56 57 41 21
4 41 42 21 57
4 21 22 57 42
4 55 56 40 20
4 40 41 20 56
4 20 21 56 41
3 9 19 4
3 14 19 9
3 9 24 29
3 9 4 24
3 4 19 24
3 19 39 24
3 19 34 39
3 34 19 14
3 34 14 9
3 34 9 29
3 44 49 24
3 29 24 49
3 34 29 49
3 49 54 34
3 34 54 39
3 54 59 39
3 39 59 24
3 59 44 24
3 0 15 5
3 5 15 10
3 25 20 5
3 20 0 5
3 20 15 0
3 20 35 15
3 35 30 15
3 10 15 30
3 5 10 30
3 25 5 30
3 20 45 40
3 45 20 25
3 45 25 30
3 30 50 45
3 35 50 30
3 35 55 50
3 20 55 35
3 20 40 55
3 3 8 9
3 9 4 3
3 2 7 8
3 8 3 2
3 1 6 7
3 7 2 1
3 0 5 6
3 6 1 0
3 8 13 14
3 14 9 8
3 7 12 13
3 13 8 7
3 6 11 12
3 12 7 6
3 5 10 11
3 11 6 5
3 13 18 19
3 19 14 13
3 12 17 18
3 18 13 12
3 11 16 17
3 17 12 11
3 10 15 16
3 16 11 10
3 18 3 19
3 4 19 3
3 17 2 18
3 3 18 2
3 16 1 17
3 2 17 1
3 15 0 16
3 1 16 0
3 23 28 29
3 29 24 23
3 22 27 28
3 28 23 22
3 21 26 27
3 27 22 21
3 20 25 26
3 26 21 20
3 28 33 34
3 34 29 28
3 27 32 33
3 33 28 27
3 26 31 32
3 32 27 26
3 25 30 31
3 31 26 25
3 33 38 39
3 39 34 33
3 32 37 38
3 38 33 32
3 31 36 37
3 37 32 31
3 30 35 36
3 36 31 30
3 38 23 39
3 24 39 23
3 37 22 38
3 23 38 22
3 36 21 37
3 22 37 21
3 35 20 36
3 21 36 20
3 43 48 49
3 49 44 43
3 42 47 48
3 48 43 42
3 41 46 47
3 47 42 41
3 40 45 46
3 46 41 40
3 48 53 54
3 54 49 48
3 47 52 53
3 53 48 47
3 46 51 52
3 52 47 46
3 45 50 51
3 51 46 45
3 53 58 59
3 59 54 53
3 52 57 58
3 58 53 52
3 51 56 57
3 57 52 51
3 50 55 56
3 56 51 50
3 58 43 59
3 44 59 43
3 57 42 58
3 43 58 42
3 56 41 57
3 42 57 41
3 55 40 56
3 41 56 40

CELL_TYPES 348
10 10 10 10 10 10 10 10 10 10 10 10 10 10 10 10 10 10 10 10 10 10 10 10 10 10 10 10 10 10 10 10 10 10 10 10 10 10 10 10 10 10 10 10 10 10 10 10 10 10 10 10 10 10 10 10 10 10 10 10 10 10 10 10 10 10 10 10 10 10 10 10 10 10 10 10 10 10 10 10 10 10 10 10 10 10 10 10 10 10 10 10 10 10 10 10 10 10 10 10 10 10 10 10 10 10 10 10 10 10 10 10 10 10 10 10 10 10 10 10 10 10 10 10 10 10 10 10 10 10 10 10 10 10 10 10 10 10 10 10 10 10 10 10 10 10 10 10 10 10 10 10 10 10 10 10 10 10 10 10 10 10 10 10 10 10 10 10 10 10 10 10 10 10 10 10 10 10 10 10 10 10 10 10 10 10 10 10 10 10 10 10 10 10 10 10 10 10 10 10 10 10 10 10 10 10 10 10 10 10 10 10 10 10 10 10 5 5 5 5 5 5 5 5 5 5 5 5 5 5 5 5 5 5 5 5 5 5 5 5 5 5 5 5 5 5 5 5 5 5 5 5 5 5 5 5 5 5 5 5 5 5 5 5 5 5 5 5 5 5 5 5 5 5 5 5 5 5 5 5 5 5 5 5 5 5 5 5 5 5 5 5 5 5 5 5 5 5 5 5 5 5 5 5 5 5 5 5 5 5 5 5 5 5 5 5 5 5 5 5 5 5 5 5 5 5 5 5 5 5 5 5 5 5 5 5 5 5 5 5 5 5 5 5 5 5 5 5 
CELL_DATA 348
Scalars  Label int1
LOOKUP_TABLE FreeFempp_table
0
0
0
0
0
0
0
0
0
0
0
0
0
0
0
0
0
0
0
0
0
0
0
0
1
1
1
1
1
1
1
1
1
1
1
1
1
1
1
1
1
1
1
1
1
1
1
1
1
1
1
1
1
1
1
1
1
1
1
1
1
1
1
1
1
1
1
1
1
1
1
1
1
1
1
1
1
1
1
1
1
1
1
1
1
1
1
1
1
1
1
1
1
1
1
1
1
1
1
1
1
1
1
1
1
1
1
1
1
1
1
1
1
1
1
1
1
1
1
1
2
2
2
2
2
2
2
2
2
2
2
2
2
2
2
2
2
2
2
2
2
2
2
2
2
2
2
2
2
2
2
2
2
2
2
2
2
2
2
2
2
2
2
2
2
2
2
2
2
2
2
2
2
2
2
2
2
2
2
2
2
2
2
2
2
2
2
2
2
2
2
2
2
2
2
2
2
2
2
2
2
2
2
2
2
2
2
2
2
2
2
2
2
2
2
2
1
1
1
1
1
1
1
1
1
1
2
2
2
2
2
2
2
2
1
1
1
1
1
1
1
1
1
1
2
2
2
2
2
2
2
2
4
4
4
4
4
4
4
4
4
4
4
4
4
4
4
4
4
4
4
4
4
4
4
4
4
4
4
4
4
4
4
4
3
3
3
3
3
3
3
3
3
3
3
3
3
3
3
3
3
3
3
3
3
3
3
3
3
3
3
3
3
3
3
3
2
2
2
2
2
2
2
2
2
2
2
2
2
2
2
2
2
2
2
2
2
2
2
2
2
2
2
2
2
2
2
2

LOOKUP_TABLE FreeFempp_table 5
1.00000000 0.00000000 0.00000000 1.00000000
1.00000000 1.00000000 0.00000000 1.00000000
1.00000000 0.00000000 1.00000000 1.00000000
0.00000000 1.00000000 0.00000000 1.00000000
0.00000000 1.00000000 1.00000000 1.00000000

FIELD FieldData 2
init 3 348 float
2.37068981e-02 -4.70542088e-02 8.62121165e-01 -4.66441125e-01 -4.66441125e-01 8.38773847e-01 -4.19386923e-01 -4.90148038e-01 8.15426528e-01 5.95576083e-03 -2.37068981e-02 9.38721895e-01 -4.84192252e-01 -4.84192252e-01 9.20970738e-01 -4.60485369e-01 -4.90148038e-01 9.03219581e-01 -2.20925245e-03 -5.95576083e-03 9.80968058e-01 -4.92357284e-01 -4.92357284e-01 9.72803056e-01 -4.86401528e-01 -4.90148038e-01 9.64637995e-01 1.35733304e-03 4.92357284e-01 9.78433311e-01 1.35733304e-03 1.35733304e-03 9.81999874e-01 -4.90999937e-01 -5.55111512e-17 9.85566497e-01 4.66441125e-01 4.43093807e-01 8.62121165e-01 4.19386923e-01 4.66800719e-01 8.38773847e-01 -4.70542088e-02 2.37068981e-02 8.15426528e-01 4.84192252e-01 4.66441125e-01 9.38721895e-01 4.60485369e-01 4.72396880e-01 9.20970738e-01 -2.37068981e-02 5.95576083e-03 9.03219581e-01 4.92357284e-01 4.84192252e-01 9.80968058e-01 4.86401528e-01 4.81983006e-01 9.72803056e-01 -5.95576083e-03 -2.20925245e-03 9.64637995e-01 4.88790691e-01 2.20925245e-03 9.78433311e-01 9.81147945e-01 3.56658548e-03 9.81999874e-01 4.92357284e-01 1.35733304e-03 9.85566497e-01 -8.09397519e-01 -7.72313714e-01 7.79265046e-01 -7.96020567e-01 -7.65362382e-01 7.58936763e-01 -8.48352551e-01 -7.77591407e-01 7.64214516e-01 -8.24853241e-01 -8.25848818e-01 8.48255873e-01 -8.31804574e-01 -8.03441763e-01 8.32800150e-01 -8.68680835e-01 -8.39018166e-01 8.45969498e-01 -8.31962466e-01 -8.56578767e-01 8.86094987e-01 -8.54369521e-01 -8.27062488e-01 8.78985822e-01 -8.84136558e-01 -8.80390048e-01 9.02797103e-01 3.28724198e-02 -4.85434532e-01 8.83426845e-01 -3.68225276e-01 -4.59023654e-01 8.86532247e-01 -4.01097715e-01 -8.92097652e-01 9.21613932e-01 -8.31596971e-01 -8.38022590e-01 8.07890058e-01 -8.83928955e-01 -8.50251675e-01 8.13167810e-01 -8.36874723e-01 -8.73958528e-01 7.89820492e-01 -8.85132134e-01 -8.55773687e-01 8.79176319e-01 -9.22008336e-01 -8.91350091e-01 8.92345667e-01 -8.98301423e-01 -8.97305846e-01 8.74594510e-01 -9.15862024e-01 -8.63938749e-01 9.18071270e-01 -9.45629060e-01 -9.17266250e-01 9.41882551e-01 -9.39673305e-01 -9.15057003e-01 9.33717549e-01 -4.26151246e-01 1.35733304e-03 9.14941907e-01 -4.59023654e-01 -4.31716651e-01 9.50023592e-01 -9.51380908e-01 -4.33073997e-01 9.53590214e-01 -3.41448963e-01 -3.95288348e-01 8.07890058e-01 9.63671133e-02 -1.14778206e-02 8.13167810e-01 -3.46726686e-01 -4.77918953e-01 7.89820492e-01 -3.94984096e-01 -3.77537221e-01 8.79176319e-01 5.82877174e-02 2.96206288e-02 8.92345667e-01 -4.08153415e-01 -4.54571635e-01 8.74594510e-01 -4.25714016e-01 -3.69372189e-01 9.18071270e-01 3.46669704e-02 5.55367805e-02 9.41882551e-01 -4.49525297e-01 -4.36820507e-01 9.33717549e-01 -9.16299284e-01 4.88790691e-01 9.14941907e-01 -4.59023654e-01 5.50283253e-01 9.50023592e-01 -4.61232901e-01 6.14925399e-02 9.53590214e-01 4.23913419e-01 4.00732249e-01 7.79265046e-01 6.57088906e-02 2.21994575e-02 7.58936763e-01 5.03524959e-01 4.06009972e-01 7.64214516e-01 4.08457667e-01 4.54267383e-01 8.48255873e-01 2.99248938e-02 6.02788590e-02 8.32800150e-01 4.83196706e-01 4.67436701e-01 8.45969498e-01 4.01348472e-01 4.84997302e-01 8.86094987e-01 7.35996896e-03 8.38996023e-02 8.78985822e-01 4.67740953e-01 5.08808553e-01 9.02797103e-01 -4.57275599e-01 8.57015967e-01 8.83426845e-01 -4.86791849e-01 4.59023654e-01 8.86532247e-01 -2.95162555e-02 5.20516217e-01 9.21613932e-01 8.09397519e-01 7.72313714e-01 7.79265046e-01 7.96020567e-01 7.65362382e-01 7.58936763e-01 8.48352551e-01 7.77591407e-01 7.64214516e-01 8.24853241e-01 8.25848818e-01 8.48255873e-01 8.31804574e-01 8.03441763e-01 8.32800150e-01 8.68680835e-01 8.39018166e-01 8.45969498e-01 8.31962466e-01 8.56578767e-01 8.86094987e-01 8.54369521e-01 8.27062488e-01 8.78985822e-01 8.84136558e-01 8.80390048e-01 9.02797103e-01 -3.28724198e-02 4.85434532e-01 8.83426845e-01 3.68225276e-01 4.59023654e-01 8.86532247e-01 4.01097715e-01 8.92097652e-01 9.21613932e-01 8.31596971e-01 8.38022590e-01 8.07890058e-01 8.83928955e-01 8.50251675e-01 8.13167810e-01 8.36874723e-01 8.73958528e-01 7.89820492e-01 8.85132134e-01 8.55773687e-01 8.79176319e-01 9.22008336e-01 8.91350091e-01 8.92345667e-01 8.98301423e-01 8.97305846e-01 8.74594510e-01 9.15862024e-01 8.63938749e-01 9.18071270e-01 9.45629060e-01 9.17266250e-01 9.41882551e-01 9.39673305e-01 9.15057003e-01 9.33717549e-01 4.26151246e-01 -1.35733304e-03 9.14941907e-01 4.59023654e-01 4.31716651e-01 9.50023592e-01 9.51380908e-01 4.33073997e-01 9.53590214e-01 3.41448963e-01 3.95288348e-01 8.07890058e-01 3.46726686e-01 4.54571635e-01 8.13167810e-01 -1.19714431e-01 1.14778206e-02 7.89820492e-01 3.94984096e-01 3.77537221e-01 8.79176319e-01 4.08153415e-01 4.36820507e-01 8.92345667e-01 -7.60388523e-02 -2.96206288e-02 8.74594510e-01 4.25714016e-01 3.69372189e-01 9.18071270e-01 4.49525297e-01 4.28655475e-01 9.41882551e-01 -4.28319871e-02 -5.55367805e-02 9.33717549e-01 9.16299284e-01 -4.88790691e-01 9.14941907e-01 9.51380908e-01 -5.79259545e-02 9.50023592e-01 4.62590247e-01 -6.01352081e-02 9.53590214e-01 -6.57088906e-02 -4.25277203e-02 7.79265046e-01 -4.44241673e-01 -4.00732249e-01 7.58936763e-01 -5.03524959e-01 -4.06009972e-01 7.64214516e-01 -2.99248938e-02 -7.57345855e-02 8.48255873e-01 -4.23913419e-01 -4.54267383e-01 8.32800150e-01 -4.83196706e-01 -4.67436701e-01 8.45969498e-01 -7.35996896e-03 -9.10087973e-02 8.86094987e-01 -4.08457667e-01 -4.84997302e-01 8.78985822e-01 -4.67740953e-01 -5.08808553e-01 9.02797103e-01 8.58373284e-01 -4.55918282e-01 8.83426845e-01 4.60381001e-01 -4.85434532e-01 8.86532247e-01 2.95162555e-02 -5.20516217e-01 9.21613932e-01 -4.29532439e-01 -4.60081130e-01 5.16322851e-01 -4.67032462e-01 -4.10790712e-01 5.04532456e-01 -5.27655840e-01 -5.34081459e-01 5.65155864e-01 -4.53952491e-01 -4.80835825e-01 5.61497629e-01 -5.03242910e-01 -4.22581106e-01 5.52533269e-01 -5.75230241e-01 -5.45871854e-01 6.24520659e-01 -4.65185016e-01 -4.93923485e-01 5.85817814e-01 -5.23439765e-01 -4.31545436e-01 5.81694484e-01 -6.06759489e-01 -5.54836154e-01 6.65014207e-01 -3.35278511e-01 3.35753459e-04 5.83233476e-01 -5.22656560e-01 6.09126762e-02 5.85034609e-01 -6.14886642e-01 -1.87378049e-01 6.77264690e-01 -5.03532767e-01 -5.90323150e-01 5.97274482e-01 -6.26823485e-01 -6.50946558e-01 6.57897890e-01 -6.13446593e-01 -6.43995225e-01 6.37569666e-01 -5.18988490e-01 -6.26533628e-01 6.48940682e-01 -6.42279267e-01 -6.98520958e-01 7.20928013e-01 -6.49230599e-01 -6.76113904e-01 7.05472291e-01 -5.26097715e-01 -6.46730483e-01 6.76246703e-01 -6.49388433e-01 -7.30050206e-01 7.59566486e-01 -6.71795487e-01 -7.00533926e-01 7.52457261e-01 -2.64108665e-02 -2.74365842e-01 6.72358155e-01 -2.74701595e-01 -3.66595894e-01 7.64588237e-01 -6.75799310e-01 -3.40185016e-01 7.67693579e-01 -1.18048668e-01 -2.18741730e-01 5.97274482e-01 1.16865128e-01 7.88393915e-02 6.57897890e-01 -2.61667669e-01 -2.79365122e-01 6.37569666e-01 -1.02592938e-01 -2.54952163e-01 6.48940682e-01 1.52649119e-01 5.15932702e-02 7.20928013e-01 -2.41339400e-01 -3.26939523e-01 7.05472291e-01 -9.54837427e-02 -2.75149018e-01 6.76246703e-01 1.75214037e-01 3.55197527e-02 7.59566486e-01 -2.25883663e-01 -3.58468771e-01 7.52457261e-01 3.97992313e-01 -6.45947278e-01 6.72358155e-01 5.50799310e-01 -3.37079644e-01 7.64588237e-01 1.52806982e-01 -3.66595894e-01 7.67693579e-01 3.42032462e-01 1.99000329e-01 5.16322851e-01 1.67742059e-01 3.65003310e-02 5.04532456e-01 4.02655840e-01 3.34081441e-01 5.65155864e-01 3.78242910e-01 1.90036014e-01 5.61497629e-01 1.94988176e-01 1.57456156e-02 5.52533269e-01 4.50230241e-01 3.22291046e-01 6.24520659e-01 3.98439735e-01 1.85912684e-01 5.85817814e-01 2.11061701e-01 2.65795947e-03 5.81694484e-01 4.81759489e-01 3.13326746e-01 6.65014207e-01 5.22656560e-01 -3.08867663e-01 5.83233476e-01 3.37079644e-01 -3.71245712e-01 5.85034609e-01 4.89886612e-01 -6.23780489e-02 6.77264690e-01 5.90323150e-01 5.03532767e-01 5.97274482e-01 6.64323509e-01 6.13446593e-01 6.57897890e-01 6.50946558e-01 6.06495261e-01 6.37569666e-01 6.26533628e-01 5.18988490e-01 6.48940682e-01 6.91569626e-01 6.49230599e-01 7.20928013e-01 6.98520958e-01 6.26823485e-01 7.05472291e-01 6.46730483e-01 5.26097715e-01 6.76246703e-01 7.07643151e-01 6.71795487e-01 7.59566486e-01 7.30050206e-01 6.42279267e-01 7.52457261e-01 2.74365842e-01 2.64108665e-02 6.72358155e-01 3.37079644e-01 3.04217845e-01 7.64588237e-01 7.38177359e-01 2.77806967e-01 7.67693579e-01 4.22581106e-01 4.67032462e-01 5.16322851e-01 4.60081130e-01 4.17742044e-01 5.04532456e-01 5.34081459e-01 5.27655840e-01 5.65155864e-01 4.31545436e-01 5.03242910e-01 5.61497629e-01 4.80835825e-01 4.44988191e-01 5.52533269e-01 5.45871854e-01 5.75230241e-01 6.24520659e-01 4.35668766e-01 5.23439765e-01 5.85817814e-01 4.93923485e-01 4.61061686e-01 5.81694484e-01 5.54836154e-01 6.06759489e-01 6.65014207e-01 -6.27138019e-02 3.97656560e-01 5.83233476e-01 1.24664247e-01 3.37079644e-01 5.85034609e-01 1.87378049e-01 6.14886642e-01 6.77264690e-01 1.18048668e-01 2.18741730e-01 5.97274482e-01 2.41339400e-01 2.79365122e-01 6.57897890e-01 -1.16865128e-01 -9.91676599e-02 6.37569666e-01 1.02592938e-01 2.54952163e-01 6.48940682e-01 2.25883663e-01 3.26939523e-01 7.20928013e-01 -1.52649119e-01 -6.70490041e-02 7.05472291e-01 9.54837427e-02 2.75149018e-01 6.76246703e-01 2.18774468e-01 3.58468771e-01 7.59566486e-01 -1.75214037e-01 -4.26289439e-02 7.52457261e-01 -3.97992313e-01 6.45947278e-01 6.72358155e-01 -1.49701595e-01 7.38177359e-01 7.64588237e-01 -1.79217845e-01 3.40185016e-01 7.67693579e-01 -1.79532453e-01 -3.65003310e-02 5.16322851e-01 -3.42032462e-01 -2.10790724e-01 5.04532456e-01 -4.02655840e-01 -3.34081441e-01 5.65155864e-01 -2.03952506e-01 -1.57456156e-02 5.61497629e-01 -3.78242910e-01 -1.99000329e-01 5.52533269e-01 -4.50230241e-01 -3.22291046e-01 6.24520659e-01 -2.15185031e-01 -2.65795947e-03 5.85817814e-01 -3.98439735e-01 -1.90036014e-01 5.81694484e-01 -4.81759489e-01 -3.13326746e-01 6.65014207e-01 -3.35278511e-01 4.96245712e-01 5.83233476e-01 -3.97656560e-01 3.10668766e-01 5.85034609e-01 -4.89886612e-01 6.23780489e-02 6.77264690e-01 -4.19386923e-01 -4.90148038e-01 8.15426528e-01 -4.70542088e-02 2.37068981e-02 8.15426528e-01 -8.48352551e-01 -7.77591407e-01 7.64214516e-01 -8.36874723e-01 -8.73958528e-01 7.89820492e-01 -3.46726686e-01 -4.77918953e-01 7.89820492e-01 5.03524959e-01 4.06009972e-01 7.64214516e-01 8.48352551e-01 7.77591407e-01 7.64214516e-01 8.36874723e-01 8.73958528e-01 7.89820492e-01 -1.19714431e-01 1.14778206e-02 7.89820492e-01 -5.03524959e-01 -4.06009972e-01 7.64214516e-01 -5.27655840e-01 -5.34081459e-01 5.65155864e-01 -6.13446593e-01 -6.43995225e-01 6.37569666e-01 -2.61667669e-01 -2.79365122e-01 6.37569666e-01 4.02655840e-01 3.34081441e-01 5.65155864e-01 6.50946558e-01 6.06495261e-01 6.37569666e-01 5.34081459e-01 5.27655840e-01 5.65155864e-01 -1.16865128e-01 -9.91676599e-02 6.37569666e-01 -4.02655840e-01 -3.34081441e-01 5.65155864e-01 1.35733304e-03 4.92357284e-01 9.78433311e-01 4.88790691e-01 2.20925245e-03 9.78433311e-01 3.28724198e-02 -4.85434532e-01 8.83426845e-01 -4.26151246e-01 1.35733304e-03 9.14941907e-01 -9.16299284e-01 4.88790691e-01 9.14941907e-01 -4.57275599e-01 8.57015967e-01 8.83426845e-01 -3.28724198e-02 4.85434532e-01 8.83426845e-01 4.26151246e-01 -1.35733304e-03 9.14941907e-01 9.16299284e-01 -4.88790691e-01 9.14941907e-01 8.58373284e-01 -4.55918282e-01 8.83426845e-01 -3.35278511e-01 3.35753459e-04 5.83233476e-01 -2.64108665e-02 -2.74365842e-01 6.72358155e-01 3.97992313e-01 -6.45947278e-01 6.72358155e-01 5.22656560e-01 -3.08867663e-01 5.83233476e-01 2.74365842e-01 2.64108665e-02 6.72358155e-01 -6.27138019e-02 3.97656560e-01 5.83233476e-01 -3.97992313e-01 6.45947278e-01 6.72358155e-01 -3.35278511e-01 4.96245712e-01 5.83233476e-01 -4.66441125e-01 -4.66441125e-01 8.38773847e-01 -4.19386923e-01 -4.90148038e-01 8.15426528e-01 -4.84192252e-01 -4.84192252e-01 9.20970738e-01 -4.60485369e-01 -4.90148038e-01 9.03219581e-01 -4.92357284e-01 -4.92357284e-01 9.72803056e-01 -4.86401528e-01 -4.90148038e-01 9.64637995e-01 1.35733304e-03 1.35733304e-03 9.81999874e-01 -4.90999937e-01 -5.55111512e-17 9.85566497e-01 4.19386923e-01 4.66800719e-01 8.38773847e-01 -4.70542088e-02 2.37068981e-02 8.15426528e-01 4.60485369e-01 4.72396880e-01 9.20970738e-01 -2.37068981e-02 5.95576083e-03 9.03219581e-01 4.86401528e-01 4.81983006e-01 9.72803056e-01 -5.95576083e-03 -2.20925245e-03 9.64637995e-01 9.81147945e-01 3.56658548e-03 9.81999874e-01 4.92357284e-01 1.35733304e-03 9.85566497e-01 4.66441125e-01 4.43093807e-01 8.62121165e-01 4.19386923e-01 4.66800719e-01 8.38773847e-01 4.84192252e-01 4.66441125e-01 9.38721895e-01 4.60485369e-01 4.72396880e-01 9.20970738e-01 4.92357284e-01 4.84192252e-01 9.80968058e-01 4.86401528e-01 4.81983006e-01 9.72803056e-01 4.88790691e-01 2.20925245e-03 9.78433311e-01 9.81147945e-01 3.56658548e-03 9.81999874e-01 2.37068981e-02 -4.70542088e-02 8.62121165e-01 -4.19386923e-01 -4.90148038e-01 8.15426528e-01 5.95576083e-03 -2.37068981e-02 9.38721895e-01 -4.60485369e-01 -4.90148038e-01 9.03219581e-01 -2.20925245e-03 -5.95576083e-03 9.80968058e-01 -4.86401528e-01 -4.90148038e-01 9.64637995e-01 1.35733304e-03 4.92357284e-01 9.78433311e-01 -4.90999937e-01 -5.55111512e-17 9.85566497e-01 -8.09397519e-01 -7.72313714e-01 7.79265046e-01 -7.96020567e-01 -7.65362382e-01 7.58936763e-01 -8.24853241e-01 -8.25848818e-01 8.48255873e-01 -8.31804574e-01 -8.03441763e-01 8.32800150e-01 -8.31962466e-01 -8.56578767e-01 8.86094987e-01 -8.54369521e-01 -8.27062488e-01 8.78985822e-01 3.28724198e-02 -4.85434532e-01 8.83426845e-01 -3.68225276e-01 -4.59023654e-01 8.86532247e-01 -6.57088906e-02 -4.25277203e-02 7.79265046e-01 -4.44241673e-01 -4.00732249e-01 7.58936763e-01 -2.99248938e-02 -7.57345855e-02 8.48255873e-01 -4.23913419e-01 -4.54267383e-01 8.32800150e-01 -7.35996896e-03 -9.10087973e-02 8.86094987e-01 -4.08457667e-01 -4.84997302e-01 8.78985822e-01 8.58373284e-01 -4.55918282e-01 8.83426845e-01 4.60381001e-01 -4.85434532e-01 8.86532247e-01 8.09397519e-01 7.72313714e-01 7.79265046e-01 7.96020567e-01 7.65362382e-01 7.58936763e-01 8.24853241e-01 8.25848818e-01 8.48255873e-01 8.31804574e-01 8.03441763e-01 8.32800150e-01 8.31962466e-01 8.56578767e-01 8.86094987e-01 8.54369521e-01 8.27062488e-01 8.78985822e-01 -3.28724198e-02 4.85434532e-01 8.83426845e-01 3.68225276e-01 4.59023654e-01 8.86532247e-01 4.23913419e-01 4.00732249e-01 7.79265046e-01 6.57088906e-02 2.21994575e-02 7.58936763e-01 4.08457667e-01 4.54267383e-01 8.48255873e-01 2.99248938e-02 6.02788590e-02 8.32800150e-01 4.01348472e-01 4.84997302e-01 8.86094987e-01 7.35996896e-03 8.38996023e-02 8.78985822e-01 -4.57275599e-01 8.57015967e-01 8.83426845e-01 -4.86791849e-01 4.59023654e-01 8.86532247e-01 -4.29532439e-01 -4.60081130e-01 5.16322851e-01 -4.67032462e-01 -4.10790712e-01 5.04532456e-01 -4.53952491e-01 -4.80835825e-01 5.61497629e-01 -5.03242910e-01 -4.22581106e-01 5.52533269e-01 -4.65185016e-01 -4.93923485e-01 5.85817814e-01 -5.23439765e-01 -4.31545436e-01 5.81694484e-01 -3.35278511e-01 3.35753459e-04 5.83233476e-01 -5.22656560e-01 6.09126762e-02 5.85034609e-01 3.42032462e-01 1.99000329e-01 5.16322851e-01 1.67742059e-01 3.65003310e-02 5.04532456e-01 3.78242910e-01 1.90036014e-01 5.61497629e-01 1.94988176e-01 1.57456156e-02 5.52533269e-01 3.98439735e-01 1.85912684e-01 5.85817814e-01 2.11061701e-01 2.65795947e-03 5.81694484e-01 5.22656560e-01 -3.08867663e-01 5.83233476e-01 3.37079644e-01 -3.71245712e-01 5.85034609e-01 4.22581106e-01 4.67032462e-01 5.16322851e-01 4.60081130e-01 4.17742044e-01 5.04532456e-01 4.31545436e-01 5.03242910e-01 5.61497629e-01 4.80835825e-01 4.44988191e-01 5.52533269e-01 4.35668766e-01 5.23439765e-01 5.85817814e-01 4.93923485e-01 4.61061686e-01 5.81694484e-01 -6.27138019e-02 3.97656560e-01 5.83233476e-01 1.24664247e-01 3.37079644e-01 5.85034609e-01 -1.79532453e-01 -3.65003310e-02 5.16322851e-01 -3.42032462e-01 -2.10790724e-01 5.04532456e-01 -2.03952506e-01 -1.57456156e-02 5.61497629e-01 -3.78242910e-01 -1.99000329e-01 5.52533269e-01 -2.15185031e-01 -2.65795947e-03 5.85817814e-01 -3.98439735e-01 -1.90036014e-01 5.81694484e-01 -3.35278511e-01 4.96245712e-01 5.83233476e-01 -3.97656560e-01 3.10668766e-01 5.85034609e-01 
scalaire2 1 348 float
0.00000000e+00 0.00000000e+00 0.00000000e+00 0.00000000e+00 0.00000000e+00 0.00000000e+00 0.00000000e+00 0.00000000e+00 0.00000000e+00 0.00000000e+00 0.00000000e+00 0.00000000e+00 0.00000000e+00 0.00000000e+00 0.00000000e+00 0.00000000e+00 0.00000000e+00 0.00000000e+00 0.00000000e+00 0.00000000e+00 0.00000000e+00 0.00000000e+00 0.00000000e+00 0.00000000e+00 0.00000000e+00 0.00000000e+00 0.00000000e+00 0.00000000e+00 0.00000000e+00 0.00000000e+00 0.00000000e+00 0.00000000e+00 0.00000000e+00 0.00000000e+00 0.00000000e+00 0.00000000e+00 0.00000000e+00 0.00000000e+00 0.00000000e+00 0.00000000e+00 0.00000000e+00 0.00000000e+00 0.00000000e+00 0.00000000e+00 0.00000000e+00 0.00000000e+00 0.00000000e+00 0.00000000e+00 0.00000000e+00 0.00000000e+00 0.00000000e+00 0.00000000e+00 0.00000000e+00 0.00000000e+00 0.00000000e+00 0.00000000e+00 0.00000000e+00 0.00000000e+00 0.00000000e+00 0.00000000e+00 0.00000000e+00 0.00000000e+00 0.00000000e+00 0.00000000e+00 0.00000000e+00 0.00000000e+00 0.00000000e+00 0.00000000e+00 0.00000000e+00 0.00000000e+00 0.00000000e+00 0.00000000e+00 0.00000000e+00 0.00000000e+00 0.00000000e+00 0.00000000e+00 0.00000000e+00 0.00000000e+00 0.00000000e+00 0.00000000e+00 0.00000000e+00 0.00000000e+00 0.00000000e+00 0.00000000e+00 0.00000000e+00 0.00000000e+00 0.00000000e+00 0.00000000e+00 0.00000000e+00 0.00000000e+00 0.00000000e+00 0.00000000e+00 0.00000000e+00 0.00000000e+00 0.00000000e+00 0.00000000e+00 0.00000000e+00 0.00000000e+00 0.00000000e+00 0.00000000e+00 0.00000000e+00 0.00000000e+00 0.00000000e+00 0.00000000e+00 0.00000000e+00 0.00000000e+00 0.00000000e+00 0.00000000e+00 0.00000000e+00 0.00000000e+00 0.00000000e+00 0.00000000e+00 0.00000000e+00 0.00000000e+00 0.00000000e+00 0.00000000e+00 0.00000000e+00 0.00000000e+00 0.00000000e+00 0.00000000e+00 0.00000000e+00 0.00000000e+00 0.00000000e+00 0.00000000e+00 0.00000000e+00 0.00000000e+00 0.00000000e+00 0.00000000e+00 0.00000000e+00 0.00000000e+00 0.00000000e+00 0.00000000e+00 0.00000000e+00 0.00000000e+00 0.00000000e+00 0.00000000e+00 0.00000000e+00 0.00000000e+00 0.00000000e+00 0.00000000e+00 0.00000000e+00 0.00000000e+00 0.00000000e+00 0.00000000e+00 0.00000000e+00 0.00000000e+00 0.00000000e+00 0.00000000e+00 0.00000000e+00 0.00000000e+00 0.00000000e+00 0.00000000e+00 0.00000000e+00 0.00000000e+00 0.00000000e+00 0.00000000e+00 0.00000000e+00 0.00000000e+00 0.00000000e+00 0.00000000e+00 0.00000000e+00 0.00000000e+00 0.00000000e+00 0.00000000e+00 0.00000000e+00 0.00000000e+00 0.00000000e+00 0.00000000e+00 0.00000000e+00 0.00000000e+00 0.00000000e+00 0.00000000e+00 0.00000000e+00 0.00000000e+00 0.00000000e+00 0.00000000e+00 0.00000000e+00 0.00000000e+00 0.00000000e+00 0.00000000e+00 0.00000000e+00 0.00000000e+00 0.00000000e+00 0.00000000e+00 0.00000000e+00 0.00000000e+00 0.00000000e+00 0.00000000e+00 0.00000000e+00 0.00000000e+00 0.00000000e+00 0.00000000e+00 0.00000000e+00 0.00000000e+00 0.00000000e+00 0.00000000e+00 0.00000000e+00 0.00000000e+00 0.00000000e+00 0.00000000e+00 0.00000000e+00 0.00000000e+00 0.00000000e+00 0.00000000e+00 0.00000000e+00 0.00000000e+00 0.00000000e+00 0.00000000e+00 0.00000000e+00 0.00000000e+00 0.00000000e+00 0.00000000e+00 0.00000000e+00 0.00000000e+00 0.00000000e+00 0.00000000e+00 0.00000000e+00 0.00000000e+00 0.00000000e+00 0.00000000e+00 0.00000000e+00 0.00000000e+00 0.00000000e+00 0.00000000e+00 0.00000000e+00 0.00000000e+00 0.00000000e+00 0.00000000e+00 0.00000000e+00 0.00000000e+00 0.00000000e+00 0.00000000e+00 0.00000000e+00 0.00000000e+00 0.00000000e+00 0.00000000e+00 0.00000000e+00 0.00000000e+00 0.00000000e+00 0.00000000e+00 0.00000000e+00 0.00000000e+00 0.00000000e+00 0.00000000e+00 0.00000000e+00 0.00000000e+00 0.00000000e+00 0.00000000e+00 0.00000000e+00 0.00000000e+00 0.00000000e+00 0.00000000e+00 0.00000000e+00 0.00000000e+00 0.00000000e+00 0.00000000e+00 0.00000000e+00 0.00000000e+00 0.00000000e+00 0.00000000e+00 0.00000000e+00 0.00000000e+00 0.00000000e+00 0.00000000e+00 0.00000000e+00 0.00000000e+00 0.00000000e+00 0.00000000e+00 0.00000000e+00 0.00000000e+00 0.00000000e+00 0.00000000e+00 0.00000000e+00 0.00000000e+00 0.00000000e+00 0.00000000e+00 0.00000000e+00 0.00000000e+00 0.00000000e+00 0.00000000e+00 0.00000000e+00 0.00000000e+00 0.00000000e+00 0.00000000e+00 0.00000000e+00 0.00000000e+00 0.00000000e+00 0.00000000e+00 0.00000000e+00 0.00000000e+00 0.00000000e+00 0.00000000e+00 0.00000000e+00 0.00000000e+00 0.00000000e+00 0.00000000e+00 0.00000000e+00 0.00000000e+00 0.00000000e+00 0.00000000e+00 0.00000000e+00 0.00000000e+00 0.00000000e+00 0.00000000e+00 0.00000000e+00 0.00000000e+00 0.00000000e+00 0.00000000e+00 0.00000000e+00 0.00000000e+00 0.00000000e+00 0.00000000e+00 0.00000000e+00 0.00000000e+00 0.00000000e+00 0.00000000e+00 0.00000000e+00 0.00000000e+00 0.00000000e+00 0.00000000e+00 0.00000000e+00 0.00000000e+00 0.00000000e+00 0.00000000e+00 0.00000000e+00 0.00000000e+00 0.00000000e+00 0.00000000e+00 0.00000000e+00 0.00000000e+00 0.00000000e+00 0.00000000e+00 0.00000000e+00 0.00000000e+00 0.00000000e+00 0.00000000e+00 0.00000000e+00 0.00000000e+00 0.00000000e+00 0.00000000e+00 0.00000000e+00 0.00000000e+00 0.00000000e+00 0.00000000e+00 0.00000000e+00 0.00000000e+00 0.00000000e+00 0.00000000e+00 
