# vtk DataFile Version 2.0
Tornado8_2.vtk, Created by Freefem++ 
ASCII
DATASET UNSTRUCTURED_GRID
POINTS 198 float
-0.03535534 0.03535534 -0.12500000
-0.03535534 0.03535534 -0.04687500
-0.03535534 0.03535534 0.03125000
-0.03535534 0.03535534 0.10937500
-0.03535534 0.03535534 0.18750000
-0.03535534 0.03535534 0.26562500
-0.03535534 0.03535534 0.34375000
-0.03535534 0.03535534 0.42187500
-0.03535534 0.03535534 0.50000000
-0.10606602 0.10606602 -0.12500000
-0.10606602 0.10606602 -0.04687500
-0.10606602 0.10606602 0.03125000
-0.10606602 0.10606602 0.10937500
-0.10606602 0.10606602 0.18750000
-0.10606602 0.10606602 0.26562500
-0.10606602 0.10606602 0.34375000
-0.10606602 0.10606602 0.42187500
-0.10606602 0.10606602 0.50000000
0.00000000 0.05000000 -0.12500000
0.00000000 0.05000000 -0.04687500
0.00000000 0.05000000 0.03125000
0.00000000 0.05000000 0.10937500
0.00000000 0.05000000 0.18750000
0.00000000 0.05000000 0.26562500
0.00000000 0.05000000 0.34375000
0.00000000 0.05000000 0.42187500
0.00000000 0.05000000 0.50000000
0.00000000 0.15000001 -0.12500000
0.00000000 0.15000001 -0.04687500
0.00000000 0.15000001 0.03125000
0.00000000 0.15000001 0.10937500
0.00000000 0.15000001 0.18750000
0.00000000 0.15000001 0.26562500
0.00000000 0.15000001 0.34375000
0.00000000 0.15000001 0.42187500
0.00000000 0.15000001 0.50000000
-0.15000001 0.00000000 -0.12500000
-0.15000001 0.00000000 -0.04687500
-0.15000001 0.00000000 0.03125000
-0.15000001 0.00000000 0.10937500
-0.15000001 0.00000000 0.18750000
-0.15000001 0.00000000 0.26562500
-0.15000001 0.00000000 0.34375000
-0.15000001 0.00000000 0.42187500
-0.15000001 0.00000000 0.50000000
-0.05000000 0.00000000 -0.12500000
-0.05000000 0.00000000 -0.04687500
-0.05000000 0.00000000 0.03125000
-0.05000000 0.00000000 0.10937500
-0.05000000 0.00000000 0.18750000
-0.05000000 0.00000000 0.26562500
-0.05000000 0.00000000 0.34375000
-0.05000000 0.00000000 0.42187500
-0.05000000 0.00000000 0.50000000
-0.01178511 0.01178511 -0.12500000
-0.01178511 0.01178511 -0.04687500
-0.01178511 0.01178511 0.03125000
-0.01178511 0.01178511 0.10937500
-0.01178511 0.01178511 0.18750000
-0.01178511 0.01178511 0.26562500
-0.01178511 0.01178511 0.34375000
-0.01178511 0.01178511 0.42187500
-0.01178511 0.01178511 0.50000000
0.03535534 0.03535534 -0.12500000
0.03535534 0.03535534 -0.04687500
0.03535534 0.03535534 0.03125000
0.03535534 0.03535534 0.10937500
0.03535534 0.03535534 0.18750000
0.03535534 0.03535534 0.26562500
0.03535534 0.03535534 0.34375000
0.03535534 0.03535534 0.42187500
0.03535534 0.03535534 0.50000000
-0.50000000 0.00000000 -0.12500000
-0.50000000 0.00000000 -0.04687500
-0.50000000 0.00000000 0.03125000
-0.50000000 0.00000000 0.10937500
-0.50000000 0.00000000 0.18750000
-0.50000000 0.00000000 0.26562500
-0.50000000 0.00000000 0.34375000
-0.50000000 0.00000000 0.42187500
-0.50000000 0.00000000 0.50000000
0.00000000 0.50000000 -0.12500000
0.00000000 0.50000000 -0.04687500
0.00000000 0.50000000 0.03125000
0.00000000 0.50000000 0.10937500
0.00000000 0.50000000 0.18750000
0.00000000 0.50000000 0.26562500
0.00000000 0.50000000 0.34375000
0.00000000 0.50000000 0.42187500
0.00000000 0.50000000 0.50000000
0.10606602 0.10606602 -0.12500000
0.10606602 0.10606602 -0.04687500
0.10606602 0.10606602 0.03125000
0.10606602 0.10606602 0.10937500
0.10606602 0.10606602 0.18750000
0.10606602 0.10606602 0.26562500
0.10606602 0.10606602 0.34375000
0.10606602 0.10606602 0.42187500
0.10606602 0.10606602 0.50000000
-0.10606602 -0.10606602 -0.12500000
-0.10606602 -0.10606602 -0.04687500
-0.10606602 -0.10606602 0.03125000
-0.10606602 -0.10606602 0.10937500
-0.10606602 -0.10606602 0.18750000
-0.10606602 -0.10606602 0.26562500
-0.10606602 -0.10606602 0.34375000
-0.10606602 -0.10606602 0.42187500
-0.10606602 -0.10606602 0.50000000
-0.03535534 -0.03535534 -0.12500000
-0.03535534 -0.03535534 -0.04687500
-0.03535534 -0.03535534 0.03125000
-0.03535534 -0.03535534 0.10937500
-0.03535534 -0.03535534 0.18750000
-0.03535534 -0.03535534 0.26562500
-0.03535534 -0.03535534 0.34375000
-0.03535534 -0.03535534 0.42187500
-0.03535534 -0.03535534 0.50000000
0.01178511 -0.01178511 -0.12500000
0.01178511 -0.01178511 -0.04687500
0.01178511 -0.01178511 0.03125000
0.01178511 -0.01178511 0.10937500
0.01178511 -0.01178511 0.18750000
0.01178511 -0.01178511 0.26562500
0.01178511 -0.01178511 0.34375000
0.01178511 -0.01178511 0.42187500
0.01178511 -0.01178511 0.50000000
0.05000000 0.00000000 -0.12500000
0.05000000 0.00000000 -0.04687500
0.05000000 0.00000000 0.03125000
0.05000000 0.00000000 0.10937500
0.05000000 0.00000000 0.18750000
0.05000000 0.00000000 0.26562500
0.05000000 0.00000000 0.34375000
0.05000000 0.00000000 0.42187500
0.05000000 0.00000000 0.50000000
-0.00000000 -0.50000000 -0.12500000
-0.00000000 -0.50000000 -0.04687500
-0.00000000 -0.50000000 0.03125000
-0.00000000 -0.50000000 0.10937500
-0.00000000 -0.50000000 0.18750000
-0.00000000 -0.50000000 0.26562500
-0.00000000 -0.50000000 0.34375000
-0.00000000 -0.50000000 0.42187500
-0.00000000 -0.50000000 0.50000000
0.50000000 0.00000000 -0.12500000
0.50000000 0.00000000 -0.04687500
0.50000000 0.00000000 0.03125000
0.50000000 0.00000000 0.10937500
0.50000000 0.00000000 0.18750000
0.50000000 0.00000000 0.26562500
0.50000000 0.00000000 0.34375000
0.50000000 0.00000000 0.42187500
0.50000000 0.00000000 0.50000000
-0.00000000 -0.15000001 -0.12500000
-0.00000000 -0.15000001 -0.04687500
-0.00000000 -0.15000001 0.03125000
-0.00000000 -0.15000001 0.10937500
-0.00000000 -0.15000001 0.18750000
-0.00000000 -0.15000001 0.26562500
-0.00000000 -0.15000001 0.34375000
-0.00000000 -0.15000001 0.42187500
-0.00000000 -0.15000001 0.50000000
0.15000001 0.00000000 -0.12500000
0.15000001 0.00000000 -0.04687500
0.15000001 0.00000000 0.03125000
0.15000001 0.00000000 0.10937500
0.15000001 0.00000000 0.18750000
0.15000001 0.00000000 0.26562500
0.15000001 0.00000000 0.34375000
0.15000001 0.00000000 0.42187500
0.15000001 0.00000000 0.50000000
0.03535534 -0.03535534 -0.12500000
0.03535534 -0.03535534 -0.04687500
0.03535534 -0.03535534 0.03125000
0.03535534 -0.03535534 0.10937500
0.03535534 -0.03535534 0.18750000
0.03535534 -0.03535534 0.26562500
0.03535534 -0.03535534 0.34375000
0.03535534 -0.03535534 0.42187500
0.03535534 -0.03535534 0.50000000
-0.00000000 -0.05000000 -0.12500000
-0.00000000 -0.05000000 -0.04687500
-0.00000000 -0.05000000 0.03125000
-0.00000000 -0.05000000 0.10937500
-0.00000000 -0.05000000 0.18750000
-0.00000000 -0.05000000 0.26562500
-0.00000000 -0.05000000 0.34375000
-0.00000000 -0.05000000 0.42187500
-0.00000000 -0.05000000 0.50000000
0.10606602 -0.10606602 -0.12500000
0.10606602 -0.10606602 -0.04687500
0.10606602 -0.10606602 0.03125000
0.10606602 -0.10606602 0.10937500
0.10606602 -0.10606602 0.18750000
0.10606602 -0.10606602 0.26562500
0.10606602 -0.10606602 0.34375000
0.10606602 -0.10606602 0.42187500
0.10606602 -0.10606602 0.50000000

CELLS 1308 6144
4 133 134 70 124
4 70 125 124 134
4 70 125 134 71
4 132 133 69 123
4 69 124 123 133
4 69 124 133 70
4 131 132 68 122
4 68 123 122 132
4 68 123 132 69
4 130 131 67 121
4 67 122 121 131
4 67 122 131 68
4 129 130 66 120
4 66 121 120 130
4 66 121 130 67
4 128 129 65 119
4 65 120 119 129
4 65 120 129 66
4 127 128 64 118
4 64 119 118 128
4 64 119 128 65
4 126 127 63 117
4 63 118 117 127
4 63 118 127 64
4 61 62 25 7
4 25 26 7 62
4 7 8 62 26
4 60 61 24 6
4 24 25 6 61
4 6 7 61 25
4 59 60 23 5
4 23 24 5 60
4 5 6 60 24
4 58 59 22 4
4 22 23 4 59
4 4 5 59 23
4 57 58 21 3
4 21 22 3 58
4 3 4 58 22
4 56 57 20 2
4 20 21 2 57
4 2 3 57 21
4 55 56 19 1
4 19 20 1 56
4 1 2 56 20
4 54 55 18 0
4 18 19 0 55
4 0 1 55 19
4 61 62 7 52
4 7 53 52 62
4 7 53 62 8
4 60 61 6 51
4 6 52 51 61
4 6 52 61 7
4 59 60 5 50
4 5 51 50 60
4 5 51 60 6
4 58 59 4 49
4 4 50 49 59
4 4 50 59 5
4 57 58 3 48
4 3 49 48 58
4 3 49 58 4
4 56 57 2 47
4 2 48 47 57
4 2 48 57 3
4 55 56 1 46
4 1 47 46 56
4 1 47 56 2
4 54 55 0 45
4 0 46 45 55
4 0 46 55 1
4 115 116 61 52
4 61 62 52 116
4 52 53 116 62
4 114 115 60 51
4 60 61 51 115
4 51 52 115 61
4 113 114 59 50
4 59 60 50 114
4 50 51 114 60
4 112 113 58 49
4 58 59 49 113
4 49 50 113 59
4 111 112 57 48
4 57 58 48 112
4 48 49 112 58
4 110 111 56 47
4 56 57 47 111
4 47 48 111 57
4 109 110 55 46
4 55 56 46 110
4 46 47 110 56
4 108 109 54 45
4 54 55 45 109
4 45 46 109 55
4 124 125 70 61
4 70 71 61 125
4 61 62 125 71
4 123 124 69 60
4 69 70 60 124
4 60 61 124 70
4 122 123 68 59
4 68 69 59 123
4 59 60 123 69
4 121 122 67 58
4 67 68 58 122
4 58 59 122 68
4 120 121 66 57
4 66 67 57 121
4 57 58 121 67
4 119 120 65 56
4 65 66 56 120
4 56 57 120 66
4 118 119 64 55
4 64 65 55 119
4 55 56 119 65
4 117 118 63 54
4 63 64 54 118
4 54 55 118 64
4 133 179 124 178
4 133 134 124 179
4 124 179 134 125
4 132 178 123 177
4 132 133 123 178
4 123 178 133 124
4 131 177 122 176
4 131 132 122 177
4 122 177 132 123
4 130 176 121 175
4 130 131 121 176
4 121 176 131 122
4 129 175 120 174
4 129 130 120 175
4 120 175 130 121
4 128 174 119 173
4 128 129 119 174
4 119 174 129 120
4 127 173 118 172
4 127 128 118 173
4 118 173 128 119
4 126 172 117 171
4 126 127 117 172
4 117 172 127 118
4 70 71 25 61
4 25 62 61 71
4 25 62 71 26
4 69 70 24 60
4 24 61 60 70
4 24 61 70 25
4 68 69 23 59
4 23 60 59 69
4 23 60 69 24
4 67 68 22 58
4 22 59 58 68
4 22 59 68 23
4 66 67 21 57
4 21 58 57 67
4 21 58 67 22
4 65 66 20 56
4 20 57 56 66
4 20 57 66 21
4 64 65 19 55
4 19 56 55 65
4 19 56 65 20
4 63 64 18 54
4 18 55 54 64
4 18 55 64 19
4 115 125 124 61
4 115 125 61 116
4 61 62 116 125
4 114 124 123 60
4 114 124 60 115
4 60 61 115 124
4 113 123 122 59
4 113 123 59 114
4 59 60 114 123
4 112 122 121 58
4 112 122 58 113
4 58 59 113 122
4 111 121 120 57
4 111 121 57 112
4 57 58 112 121
4 110 120 119 56
4 110 120 56 111
4 56 57 111 120
4 109 119 118 55
4 109 119 55 110
4 55 56 110 119
4 108 118 117 54
4 108 118 54 109
4 54 55 109 118
4 124 188 187 178
4 124 188 178 179
4 124 179 125 188
4 123 187 186 177
4 123 187 177 178
4 123 178 124 187
4 122 186 185 176
4 122 186 176 177
4 122 177 123 186
4 121 185 184 175
4 121 185 175 176
[...]
CELL_DATA 1308
Scalars  Label int1
LOOKUP_TABLE FreeFempp_table
0
0
0
0
0
0
0
0
0
0
0
0
0
0
0
0
0
0
0
0
0
0
0
0
0
0
0
0
0
0
0
0
0
0
0
0
0
0
0
0
0
0
0
0
0
0
0
0
0
0
0
0
0
0
0
0
0
0
0
0
0
0
0
0
0
0
0
0
0
0
0
0
0
0
0
0
0
0
0
0
0
0
0
0
0
0
0
0
0
0
0
0
0
0
0
0
0
0
0
0
0
0
0
0
0
0
0
0
0
0
0
0
0
0
0
0
0
0
0
0
0
0
0
0
0
0
0
0
0
0
0
0
0
0
0
0
0
0
0
0
0
0
0
0
0
0
0
0
0
0
0
0
0
0
0
0
0
0
0
0
0
0
0
0
0
0
0
0
0
0
0
0
0
0
0
0
0
0
0
0
0
0
0
0
0
0
0
0
0
0
0
0
0
0
0
0
0
0
0
0
0
0
0
0
0
0
0
0
0
0
0
0
0
0
0
0
0
0
0
0
0
0
0
0
0
0
0
0
0
0
0
0
0
0
0
0
0
0
0
0
1
1
1
1
1
1
1
1
1
1
1
1
1
1
1
1
1
1
1
1
1
1
1
1
1
1
1
1
1
1
1
1
1
1
1
1
1
1
1
1
1
1
1
1
1
1
1
1
1
1
1
1
1
1
1
1
1
1
1
1
1
1
1
1
1
1
1
1
1
1
1
1
1
1
1
1
1
1
1
1
1
1
1
1
1
1
1
1
1
1
1
1
1
1
1
1
1
1
1
1
1
1
1
1
1
1
1
1
1
1
1
1
1
1
1
1
1
1
1
1
1
1
1
1
1
1
1
1
1
1
1
1
1
1
1
1
1
1
1
1
1
1
1
1
1
1
1
1
1
1
1
1
1
1
1
1
1
1
1
1
1
1
1
1
1
1
1
1
1
1
1
1
1
1
1
1
1
1
1
1
1
1
1
1
1
1
1
1
1
1
1
1
1
1
1
1
1
1
1
1
1
1
1
1
1
1
1
1
1
1
1
1
1
1
1
1
1
1
1
1
1
1
1
1
1
1
1
1
1
1
1
1
1
1
1
1
1
1
1
1
1
1
1
1
1
1
1
1
1
1
1
1
1
1
1
1
1
1
1
1
1
1
1
1
1
1
1
1
1
1
1
1
1
1
1
1
1
1
1
1
1
1
1
1
1
1
1
1
1
1
1
1
1
1
1
1
1
1
1
1
1
1
1
1
1
1
1
1
1
1
1
1
1
1
1
1
1
1
1
1
1
1
1
1
1
1
1
1
1
1
1
1
1
1
1
1
1
1
1
1
1
1
1
1
1
1
1
1
1
1
1
1
1
1
1
1
1
1
1
1
1
1
1
1
1
1
1
1
1
1
1
1
1
1
1
1
1
1
1
1
1
1
1
1
2
2
2
2
2
2
2
2
2
2
2
2
2
2
2
2
2
2
2
2
2
2
2
2
2
2
2
2
2
2
2
2
2
2
2
2
2
2
2
2
2
2
2
2
2
2
2
2
2
2
2
2
2
2
2
2
2
2
2
2
2
2
2
2
2
2
2
2
2
2
2
2
2
2
2
2
2
2
2
2
2
2
2
2
2
2
2
2
2
2
2
2
2
2
2
2
2
2
2
2
2
2
2
2
2
2
2
2
2
2
2
2
2
2
2
2
2
2
2
2
2
2
2
2
2
2
2
2
2
2
2
2
2
2
2
2
2
2
2
2
2
2
2
2
2
2
2
2
2
2
2
2
2
2
2
2
2
2
2
2
2
2
2
2
2
2
2
2
2
2
2
2
2
2
2
2
2
2
2
2
2
2
2
2
2
2
2
2
2
2
2
2
2
2
2
2
2
2
2
2
2
2
2
2
2
2
2
2
2
2
2
2
2
2
2
2
2
2
2
2
2
2
2
2
2
2
2
2
2
2
2
2
2
2
2
2
2
2
2
2
2
2
2
2
2
2
2
2
2
2
2
2
2
2
2
2
2
2
2
2
2
2
2
2
2
2
2
2
2
2
2
2
2
2
2
2
2
2
2
2
2
2
2
2
2
2
2
2
1
1
1
1
1
1
1
1
1
1
1
1
1
1
1
1
1
1
1
1
1
1
1
1
1
1
2
2
2
2
2
2
2
2
2
2
2
2
1
1
1
1
1
1
1
1
1
1
1
1
1
1
1
1
1
1
1
1
1
1
1
1
1
1
2
2
2
2
2
2
2
2
2
2
2
2
1
1
1
1
1
1
1
1
1
1
1
1
1
1
1
1
1
1
1
1
1
1
1
1
1
1
1
1
1
1
1
1
1
1
1
1
1
1
1
1
1
1
1
1
1
1
1
1
1
1
1
1
1
1
1
1
1
1
1
1
1
1
1
1
1
1
1
1
1
1
1
1
1
1
1
1
1
1
1
1
1
1
1
1
1
1
1
1
1
1
1
1
1
1
1
1
1
1
1
1
1
1
1
1
1
1
1
1
1
1
1
1
1
1
1
1
1
1
1
1
1
1
1
1
1
1
1
1
1
1
1
1
1
1
1
1
1
1
1
1
1
1
1
1
1
1
1
1
1
1
1
1
1
1
1
1
1
1
1
1
1
1
1
1
1
1
1
1
1
1
1
1
1
1
1
1
1
1
1
1
1
1
1
1
1
1
1
1
1
1
1
1
1
1
1
1
1
1
1
1
1
1
1
1
1
1
1
1
1
1
1
1
1
1
1
1
1
1
1
1
1
1
1
1
1
1
1
1
1
1
1
1
1
1
1
1
1
1
1
1
1
1
1
1
1
1
1
1
1
1
1
1
1
1
1
1
1
1
1
1
1
1
1
1
1
1
1
1
1
1
1
1
1
1
1
1
1
1
1
1
1
1
1
1
1
1
1
1
1
1
1
1
1
1
1
1
1
1
1
1
1
1
1
1
1
1
1
1
1
1
1
1
1
1
1
1
1
1
1
1

LOOKUP_TABLE FreeFempp_table 3
1.00000000 0.00000000 0.00000000 1.00000000
1.00000000 1.00000000 0.00000000 1.00000000
1.00000000 0.00000000 1.00000000 1.00000000

FIELD FieldData 2
NavSto 3 1308 float
8.86185489e-07 4.72292420e-04 -4.75613982e-04 8.86185489e-07 4.72292420e-04 -4.75613982e-04 9.79977678e-38 3.55298592e-35 -3.85216071e-35 1.79351832e-06 5.44850016e-04 -5.50269149e-04 2.67970381e-06 1.01714244e-03 -1.02588313e-03 8.86185489e-07 4.72292420e-04 -4.75613982e-04 2.21792425e-06 5.56434388e-04 -5.62863192e-04 4.01144234e-06 1.10128440e-03 -1.11313234e-03 1.79351832e-06 5.44850016e-04 -5.50269149e-04 2.32086177e-06 5.57736435e-04 -5.64370304e-04 4.53878602e-06 1.11417077e-03 -1.12723350e-03 2.21792425e-06 5.56434388e-04 -5.62863192e-04 2.18499213e-06 5.54553932e-04 -5.60685119e-04 4.50585367e-06 1.11229031e-03 -1.12505537e-03 2.32086177e-06 5.57736435e-04 -5.64370304e-04 1.71500756e-06 5.34791616e-04 -5.39391534e-04 3.89999968e-06 1.08934555e-03 -1.10007660e-03 2.18499213e-06 5.54553932e-04 -5.60685119e-04 1.34369145e-06 4.30978223e-04 -4.33827343e-04 3.05869912e-06 9.65769810e-04 -9.73218877e-04 1.71500756e-06 5.34791616e-04 -5.39391534e-04 1.23963463e-36 3.63521685e-35 -3.84807173e-35 1.34369145e-06 4.30978223e-04 -4.33827343e-04 1.34369145e-06 4.30978223e-04 -4.33827343e-04 1.20220545e-06 4.30894783e-04 -4.33671317e-04 -1.37345593e-38 6.83675493e-35 -6.86643157e-35 4.68588405e-38 3.65640015e-35 -3.72401776e-35 2.66037637e-06 9.65341227e-04 -9.72498907e-04 1.20220545e-06 4.30894783e-04 -4.33671317e-04 1.20220545e-06 4.30894783e-04 -4.33671317e-04 3.43624288e-06 1.08851679e-03 -1.09891617e-03 1.45817091e-06 5.34446444e-04 -5.38827619e-04 1.45817091e-06 5.34446444e-04 -5.38827619e-04 4.11474321e-06 1.11129589e-03 -1.12385803e-03 1.97807185e-06 5.54070342e-04 -5.60088607e-04 1.97807185e-06 5.54070342e-04 -5.60088607e-04 4.18103446e-06 1.11315143e-03 -1.12603907e-03 2.13667136e-06 5.57225547e-04 -5.63769427e-04 2.13667136e-06 5.57225547e-04 -5.63769427e-04 3.69283771e-06 1.10026612e-03 -1.11199031e-03 2.04436333e-06 5.55925828e-04 -5.62269706e-04 2.04436333e-06 5.55925828e-04 -5.62269706e-04 2.45673186e-06 1.01615326e-03 -1.02490885e-03 1.64847415e-06 5.44340292e-04 -5.49720542e-04 1.64847415e-06 5.44340292e-04 -5.49720542e-04 8.08257710e-07 4.71812935e-04 -4.75188339e-04 8.08257710e-07 4.71812935e-04 -4.75188339e-04 8.08257710e-07 4.71812935e-04 -4.75188339e-04 1.20220545e-06 4.30894783e-04 -4.33671317e-04 6.02237184e-37 6.75308074e-35 -6.95293314e-35 2.31510425e-37 3.64209648e-35 -3.77609394e-35 2.66037637e-06 9.65341227e-04 -9.72498907e-04 1.20220545e-06 4.30894783e-04 -4.33671317e-04 1.20220545e-06 4.30894783e-04 -4.33671317e-04 3.43624288e-06 1.08851679e-03 -1.09891617e-03 1.45817091e-06 5.34446444e-04 -5.38827619e-04 1.45817091e-06 5.34446444e-04 -5.38827619e-04 4.11474321e-06 1.11129589e-03 -1.12385803e-03 1.97807185e-06 5.54070342e-04 -5.60088607e-04 1.97807185e-06 5.54070342e-04 -5.60088607e-04 4.18103446e-06 1.11315143e-03 -1.12603907e-03 2.13667136e-06 5.57225547e-04 -5.63769427e-04 2.13667136e-06 5.57225547e-04 -5.63769427e-04 3.69283771e-06 1.10026612e-03 -1.11199031e-03 2.04436333e-06 5.55925828e-04 -5.62269706e-04 2.04436333e-06 5.55925828e-04 -5.62269706e-04 2.45673186e-06 1.01615326e-03 -1.02490885e-03 1.64847415e-06 5.44340292e-04 -5.49720542e-04 1.64847415e-06 5.44340292e-04 -5.49720542e-04 8.08257710e-07 4.71812935e-04 -4.75188339e-04 8.08257710e-07 4.71812935e-04 -4.75188339e-04 8.08257710e-07 4.71812935e-04 -4.75188339e-04 1.20220545e-06 4.30894783e-04 -4.33671317e-04 1.20220545e-06 4.30894783e-04 -4.33671317e-04 1.23185381e-36 3.61082276e-35 -3.84377928e-35 1.45817091e-06 5.34446444e-04 -5.38827619e-04 2.66037637e-06 9.65341227e-04 -9.72498907e-04 1.20220545e-06 4.30894783e-04 -4.33671317e-04 1.97807185e-06 5.54070342e-04 -5.60088607e-04 3.43624288e-06 1.08851679e-03 -1.09891617e-03 1.45817091e-06 5.34446444e-04 -5.38827619e-04 2.13667136e-06 5.57225547e-04 -5.63769427e-04 4.11474321e-06 1.11129589e-03 -1.12385803e-03 1.97807185e-06 5.54070342e-04 -5.60088607e-04 2.04436333e-06 5.55925828e-04 -5.62269706e-04 4.18103446e-06 1.11315143e-03 -1.12603907e-03 2.13667136e-06 5.57225547e-04 -5.63769427e-04 1.64847415e-06 5.44340292e-04 -5.49720542e-04 3.69283771e-06 1.10026612e-03 -1.11199031e-03 2.04436333e-06 5.55925828e-04 -5.62269706e-04 8.08257710e-07 4.71812935e-04 -4.75188339e-04 2.45673186e-06 1.01615326e-03 -1.02490885e-03 1.64847415e-06 5.44340292e-04 -5.49720542e-04 -8.09921197e-38 3.56412040e-35 -3.85094532e-35 8.08257710e-07 4.71812935e-04 -4.75188339e-04 8.08257710e-07 4.71812935e-04 -4.75188339e-04 2.08839106e-06 9.03187203e-04 -9.09285271e-04 1.20220545e-06 4.30894783e-04 -4.33671317e-04 1.20220545e-06 4.30894783e-04 -4.33671317e-04 4.13787484e-06 1.55158888e-03 -1.56471075e-03 2.34435629e-06 1.00673886e-03 -1.01444160e-03 3.54656186e-06 1.43763365e-03 -1.44811289e-03 5.98951465e-06 1.65535475e-03 -1.67322101e-03 3.77159017e-06 1.09892036e-03 -1.11035781e-03 5.22976097e-06 1.63336680e-03 -1.64918532e-03 6.67545737e-06 1.67139643e-03 -1.69100286e-03 4.35459560e-06 1.11365994e-03 -1.12663256e-03 6.33266745e-06 1.66773028e-03 -1.68672123e-03 6.55021722e-06 1.66821619e-03 -1.68732507e-03 4.36522532e-06 1.11366226e-03 -1.12664001e-03 6.50189622e-06 1.67088781e-03 -1.69040938e-03 5.54847384e-06 1.63368578e-03 -1.64979720e-03 3.83346605e-06 1.09889416e-03 -1.11040566e-03 5.87782961e-06 1.65482005e-03 -1.67267537e-03 3.86695683e-06 1.43758277e-03 -1.44840719e-03 2.52326527e-06 1.00660452e-03 -1.01457990e-03 4.17173942e-06 1.55094487e-03 -1.56430050e-03 1.34369145e-06 4.30978223e-04 -4.33827343e-04 1.34369145e-06 4.30978223e-04 -4.33827343e-04 2.15194905e-06 9.02791158e-04 -9.09015653e-04 8.86185489e-07 4.72292420e-04 -4.75613982e-04 8.86185489e-07 4.72292420e-04 -4.75613982e-04 8.86185489e-07 4.72292420e-04 -4.75613982e-04 1.79351832e-06 5.44850016e-04 -5.50269149e-04 1.79351832e-06 5.44850016e-04 -5.50269149e-04 2.67970381e-06 1.01714244e-03 -1.02588313e-03 2.21792425e-06 5.56434388e-04 -5.62863192e-04 2.21792425e-06 5.56434388e-04 -5.62863192e-04 4.01144234e-06 1.10128440e-03 -1.11313234e-03 2.32086177e-06 5.57736435e-04 -5.64370304e-04 2.32086177e-06 5.57736435e-04 -5.64370304e-04 4.53878602e-06 1.11417077e-03 -1.12723350e-03 2.18499213e-06 5.54553932e-04 -5.60685119e-04 2.18499213e-06 5.54553932e-04 -5.60685119e-04 4.50585367e-06 1.11229031e-03 -1.12505537e-03 1.71500756e-06 5.34791616e-04 -5.39391534e-04 1.71500756e-06 5.34791616e-04 -5.39391534e-04 3.89999968e-06 1.08934555e-03 -1.10007660e-03 1.34369145e-06 4.30978223e-04 -4.33827343e-04 1.34369145e-06 4.30978223e-04 -4.33827343e-04 3.05869912e-06 9.65769810e-04 -9.73218877e-04 2.12299273e-37 4.34555638e-35 -4.48859992e-35 6.46525704e-37 7.47235471e-35 -7.65695668e-35 1.34369145e-06 4.30978223e-04 -4.33827343e-04 1.20220545e-06 4.30894783e-04 -4.33671317e-04 1.20220545e-06 4.30894783e-04 -4.33671317e-04 9.14996329e-38 3.68002167e-35 -3.71225966e-35 1.45817091e-06 5.34446444e-04 -5.38827619e-04 2.66037637e-06 9.65341227e-04 -9.72498907e-04 1.20220545e-06 4.30894783e-04 -4.33671317e-04 1.97807185e-06 5.54070342e-04 -5.60088607e-04 3.43624288e-06 1.08851679e-03 -1.09891617e-03 1.45817091e-06 5.34446444e-04 -5.38827619e-04 2.13667136e-06 5.57225547e-04 -5.63769427e-04 4.11474321e-06 1.11129589e-03 -1.12385803e-03 1.97807185e-06 5.54070342e-04 -5.60088607e-04 2.04436333e-06 5.55925828e-04 -5.62269706e-04 4.18103446e-06 1.11315143e-03 -1.12603907e-03 2.13667136e-06 5.57225547e-04 -5.63769427e-04 1.64847415e-06 5.44340292e-04 -5.49720542e-04 3.69283771e-06 1.10026612e-03 -1.11199031e-03 2.04436333e-06 5.55925828e-04 -5.62269706e-04 8.08257710e-07 4.71812935e-04 -4.75188339e-04 2.45673186e-06 1.01615326e-03 -1.02490885e-03 1.64847415e-06 5.44340292e-04 -5.49720542e-04 1.88569519e-36 3.72967224e-35 -3.99625864e-35 8.08257710e-07 4.71812935e-04 -4.75188339e-04 8.08257710e-07 4.71812935e-04 -4.75188339e-04 2.08839106e-06 9.03187203e-04 -9.09285271e-04 1.20220545e-06 4.30894783e-04 -4.33671317e-04 1.20220545e-06 4.30894783e-04 -4.33671317e-04 4.13787484e-06 1.55158888e-03 -1.56471075e-03 2.34435629e-06 1.00673886e-03 -1.01444160e-03 3.54656186e-06 1.43763365e-03 -1.44811289e-03 5.98951465e-06 1.65535475e-03 -1.67322101e-03 3.77159017e-06 1.09892036e-03 -1.11035781e-03 5.22976097e-06 1.63336680e-03 -1.64918532e-03 6.67545737e-06 1.67139643e-03 -1.69100286e-03 4.35459560e-06 1.11365994e-03 -1.12663256e-03 6.33266745e-06 1.66773028e-03 -1.68672123e-03 6.55021722e-06 1.66821619e-03 -1.68732507e-03 4.36522532e-06 1.11366226e-03 -1.12664001e-03 6.50189622e-06 1.67088781e-03 -1.69040938e-03 5.54847384e-06 1.63368578e-03 -1.64979720e-03 3.83346605e-06 1.09889416e-03 -1.11040566e-03 5.87782961e-06 1.65482005e-03 -1.67267537e-03 3.86695683e-06 1.43758277e-03 -1.44840719e-03 2.52326527e-06 1.00660452e-03 -1.01457990e-03 4.17173942e-06 1.55094487e-03 -1.56430050e-03 1.34369145e-06 4.30978223e-04 -4.33827343e-04 1.34369145e-06 4.30978223e-04 -4.33827343e-04 2.15194905e-06 9.02791158e-04 -9.09015653e-04 8.86185489e-07 4.72292420e-04 -4.75613982e-04 8.86185489e-07 4.72292420e-04 -4.75613982e-04 8.86185489e-07 4.72292420e-04 -4.75613982e-04 1.79351832e-06 5.44850016e-04 -5.50269149e-04 1.79351832e-06 5.44850016e-04 -5.50269149e-04 2.67970381e-06 1.01714244e-03 -1.02588313e-03 2.21792425e-06 5.56434388e-04 -5.62863192e-04 2.21792425e-06 5.56434388e-04 -5.62863192e-04 4.01144234e-06 1.10128440e-03 -1.11313234e-03 2.32086177e-06 5.57736435e-04 -5.64370304e-04 2.32086177e-06 5.57736435e-04 -5.64370304e-04 4.53878602e-06 1.11417077e-03 -1.12723350e-03 2.18499213e-06 5.54553932e-04 -5.60685119e-04 2.18499213e-06 5.54553932e-04 -5.60685119e-04 4.50585367e-06 1.11229031e-03 -1.12505537e-03 1.71500756e-06 5.34791616e-04 -5.39391534e-04 1.71500756e-06 5.34791616e-04 -5.39391534e-04 3.89999968e-06 1.08934555e-03 -1.10007660e-03 1.34369145e-06 4.30978223e-04 -4.33827343e-04 1.34369145e-06 4.30978223e-04 -4.33827343e-04 3.05869912e-06 9.65769810e-04 -9.73218877e-04 5.05591513e-38 4.29152525e-35 -4.32330177e-35 -1.14485034e-38 6.82896842e-35 -6.90230940e-35 1.34369145e-06 4.30978223e-04 -4.33827343e-04 8.86185489e-07 4.72292420e-04 -4.75613982e-04 8.86185489e-07 4.72292420e-04 -4.75613982e-04 1.80572047e-36 4.49571631e-35 -4.76663763e-35 1.79351832e-06 5.44850016e-04 -5.50269149e-04 2.67970381e-06 1.01714244e-03 -1.02588313e-03 8.86185489e-07 4.72292420e-04 -4.75613982e-04 2.21792425e-06 5.56434388e-04 -5.62863192e-04 4.01144234e-06 1.10128440e-03 -1.11313234e-03 1.79351832e-06 5.44850016e-04 -5.50269149e-04 2.32086177e-06 5.57736435e-04 -5.64370304e-04 4.53878602e-06 1.11417077e-03 -1.12723350e-03 2.21792425e-06 5.56434388e-04 -5.62863192e-04 2.18499213e-06 5.54553932e-04 -5.60685119e-04 4.50585367e-06 1.11229031e-03 -1.12505537e-03 2.32086177e-06 5.57736435e-04 -5.64370304e-04 1.71500756e-06 5.34791616e-04 -5.39391534e-04 3.89999968e-06 1.08934555e-03 -1.10007660e-03 2.18499213e-06 5.54553932e-04 -5.60685119e-04 1.34369145e-06 4.30978223e-04 -4.33827343e-04 3.05869912e-06 9.65769810e-04 -9.73218877e-04 1.71500756e-06 5.34791616e-04 -5.39391534e-04 4.24122290e-38 2.98197519e-35 -3.03312383e-35 1.34369145e-06 4.30978223e-04 -4.33827343e-04 1.34369145e-06 4.30978223e-04 -4.33827343e-04 -4.93252127e-37 2.11665666e-35 -2.17937184e-35 -7.50260444e-37 9.99420880e-36 -1.10562031e-35 1.32374523e-37 -1.13168437e-35 1.12882011e-35 4.83994701e-38 2.61907919e-35 -2.69254041e-35 -5.63438526e-37 4.76259256e-35 -4.88814173e-35 3.51161741e-37 2.14169819e-35 -2.15890041e-35 3.93602901e-37 2.70092585e-35 -2.78997500e-35 -1.63094830e-38 5.33795256e-35 -5.50435848e-35 1.02802870e-36 2.65324630e-35 -2.68868131e-35 5.71223692e-37 2.71931160e-35 -2.81347771e-35 2.57178670e-37 5.43378520e-35 -5.61957185e-35 1.34642801e-36 2.73898363e-35 -2.78773708e-35 7.19030860e-37 2.74712771e-35 -2.83504126e-35 4.39397738e-37 5.47755515e-35 -5.66226330e-35 1.49557621e-36 2.75983029e-35 -2.81227094e-35 9.61826782e-37 2.85821222e-35 -2.91898551e-35 6.98726023e-37 5.61350440e-35 -5.76817603e-35 1.59289995e-36 2.78870767e-35 -2.83685157e-35 1.40322504e-36 3.11868839e-35 -3.16461934e-35 1.22990347e-36 5.98300279e-35 -6.09473158e-35 1.71014500e-36 2.89751293e-35 -2.92689254e-35 6.75834904e-37 -2.89702270e-37 -1.20967330e-36 9.83807483e-37 3.09084473e-35 -3.27377587e-35 1.59484034e-36 3.13239943e-35 -3.25391013e-35 -3.97781954e-37 3.51816190e-35 -3.68535272e-35 4.84852991e-37 1.38705650e-35 -1.45091230e-35 1.00837788e-38 5.78432150e-37 -1.74908523e-36 3.27035955e-37 6.62273058e-35 -6.84197979e-35 1.24163627e-36 4.00183592e-35 -4.11273876e-35 7.49700867e-37 6.49553555e-35 -6.71294231e-35 1.00435424e-36 7.11397931e-35 -7.38904212e-35 2.04869244e-36 4.42927305e-35 -4.57336437e-35 1.95953757e-36 6.25524338e-35 -6.53106211e-35 1.29508327e-36 7.20097795e-35 -7.49729493e-35 2.38433270e-36 4.50617638e-35 -4.66546017e-35 2.45217115e-36 6.24414506e-35 -6.55238115e-35 1.46989384e-36 7.25901454e-35 -7.54935935e-35 2.52607236e-36 4.54128997e-35 -4.69936727e-35 2.63962444e-36 6.26796432e-35 -6.57829712e-35 1.69864960e-36 7.48894250e-35 -7.73282141e-35 2.59282367e-36 4.66414577e-35 -4.80149752e-35 2.74945054e-36 6.40402549e-35 -6.68678354e-35 2.15115986e-36 8.54542378e-35 -8.70946035e-35 2.63140139e-36 5.45993421e-35 -5.54162131e-35 2.88300680e-36 7.29607131e-35 -7.49836023e-35 1.29405882e-36 1.79707659e-35 -2.02597800e-35 1.90509167e-36 1.83863129e-35 -2.00611226e-35 2.63473276e-36 4.38734124e-35 -4.53155024e-35 8.25117539e-37 5.68949310e-35 -5.66664501e-35 3.50348315e-37 4.36027991e-35 -4.39064101e-35 5.51583698e-38 1.84459127e-35 -1.76707078e-35 1.81064245e-36 4.87099604e-35 -4.82237029e-35 1.31870705e-36 7.36469481e-35 -7.42257413e-35 5.11488737e-37 8.68975819e-35 -8.61071710e-35 2.50320962e-36 4.74616262e-35 -4.69549583e-35 2.41405493e-36 6.57213324e-35 -6.65319299e-35 1.35055935e-36 7.80877970e-35 -7.67374306e-35 2.75662322e-36 4.73547067e-35 -4.68177216e-35 2.82446167e-36 6.47343935e-35 -6.56869343e-35 1.83116195e-36 7.66016289e-35 -7.52748528e-35 2.83974744e-36 4.74266053e-35 -4.67938501e-35 2.95329952e-36 6.46933431e-35 -6.55831487e-35 1.98104896e-36 7.63164280e-35 -7.49362496e-35 2.82586629e-36 4.76215146e-35 -4.67820492e-35 2.98249334e-36 6.50203119e-35 -6.56349095e-35 2.01661171e-36 7.55839079e-35 -7.40608507e-35 2.67141423e-36 4.94461769e-35 -4.82964539e-35 2.92301981e-36 6.78075479e-35 -6.78638430e-35 1.97170523e-36 7.07163167e-35 -6.89755289e-35 1.64937107e-36 -2.28881521e-35 2.15975936e-35 2.37901216e-36 2.59894795e-36 -3.65678650e-36 1.93545209e-36 3.90266105e-35 -3.83161252e-35 5.43233640e-37 3.23298140e-35 -3.06441907e-35 2.03586989e-38 3.24759013e-35 -3.04692756e-35 7.05265810e-39 3.18841335e-35 -3.02558298e-35 1.04014121e-36 3.10667229e-35 -2.86371603e-35 2.66321863e-37 3.14385964e-35 -2.86169422e-35 2.29604839e-37 6.23324648e-35 -6.00849116e-35 1.54689916e-36 3.07982792e-35 -2.80921167e-35 6.87243223e-37 3.14147508e-35 -2.80825486e-35 5.80058105e-37 6.04445624e-35 -5.71508880e-35 1.74915285e-36 3.08315437e-35 -2.80382207e-35 8.60681014e-37 3.15478835e-35 -2.80445918e-35 8.74851572e-37 5.99382848e-35 -5.64120141e-35 1.81920827e-36 3.07720974e-35 -2.79367023e-35 9.25290066e-37 3.15156751e-35 -2.79465000e-35 9.73578677e-37 5.97932650e-35 -5.61567458e-35 1.81638827e-36 2.99908156e-35 -2.71907082e-35 9.52475974e-37 3.07351021e-35 -2.71864178e-35 9.96072454e-37 5.89294030e-35 -5.52037000e-35 1.69776228e-36 2.48142954e-35 -2.22730236e-35 9.39889758e-37 2.55449674e-35 -2.22490703e-35 9.62227217e-37 5.30856176e-35 -4.93841879e-35 1.22092682e-36 -9.56505220e-36 8.52852433e-36 9.76916054e-37 -8.70983343e-36 9.29757271e-36 9.61800147e-37 1.43947305e-35 -1.22926977e-35 -5.47309693e-37 3.23863330e-35 -3.07734290e-35 -5.60615705e-37 3.17945651e-35 -3.05599833e-35 -5.81972839e-37 1.52943754e-38 1.13290053e-36 -8.35969194e-37 3.14465057e-35 -2.86099483e-35 -8.72686174e-37 6.23403742e-35 -6.00779206e-35 -1.12672576e-36 3.22481579e-35 -3.09413531e-35 -8.26966984e-37 3.14173853e-35 -2.80908281e-35 -9.34152102e-37 6.04471969e-35 -5.71591705e-35 -1.57636006e-36 3.10772697e-35 -2.86384489e-35 -8.30370727e-37 3.15489396e-35 -2.80483743e-35 -8.16200169e-37 5.99393351e-35 -5.64157965e-35 -1.65836270e-36 3.08019698e-35 -2.81041816e-35 -8.35082408e-37 3.15201463e-35 -2.79456534e-35 -7.86793708e-37 5.97977363e-35 -5.61559021e-35 -1.70227137e-36 3.08370682e-35 -2.80411595e-35 -8.20630245e-37 3.07479074e-35 -2.71866962e-35 -7.77033765e-37 5.89422083e-35 -5.52039755e-35 -1.71427043e-36 3.07893711e-35 -2.79361341e-35 -7.52412973e-37 2.55652372e-35 -2.22652951e-35 -7.30075558e-37 5.31058903e-35 -4.94004141e-35 -1.64902059e-36 3.00238878e-35 -2.72072128e-35 -2.23979130e-37 -8.74280022e-36 8.46391734e-36 -2.39094992e-37 1.43617629e-35 -1.31263531e-35 -1.19543557e-36 2.48015992e-35 -2.31229037e-35 -6.17744200e-37 4.99236813e-35 -4.95165803e-35 -6.39101289e-37 1.81444096e-35 -1.78236986e-35 -2.68969039e-37 1.81685968e-35 -1.78966848e-35 -1.25849005e-36 9.39187213e-35 -9.26243745e-35 -1.51252955e-36 6.38265021e-35 -6.34878070e-35 -9.90241976e-37 8.20937934e-35 -8.22764829e-35 -1.60062454e-36 9.49021933e-35 -9.29200389e-35 -2.24283250e-36 6.55322661e-35 -6.43993203e-35 -1.88824542e-36 9.74798435e-35 -9.69172707e-35 -1.56353591e-36 9.48504785e-35 -9.27947753e-35 -2.40569844e-36 6.57131074e-35 -6.44831603e-35 -2.24077