# vtk DataFile Version 2.0
Tornado8_3.vtk, Created by Freefem++ 
ASCII
DATASET UNSTRUCTURED_GRID
POINTS 198 float
-0.03535534 0.03535534 -0.12500000
-0.03535534 0.03535534 -0.04687500
-0.03535534 0.03535534 0.03125000
-0.03535534 0.03535534 0.10937500
-0.03535534 0.03535534 0.18750000
-0.03535534 0.03535534 0.26562500
-0.03535534 0.03535534 0.34375000
-0.03535534 0.03535534 0.42187500
-0.03535534 0.03535534 0.50000000
-0.10606602 0.10606602 -0.12500000
-0.10606602 0.10606602 -0.04687500
-0.10606602 0.10606602 0.03125000
-0.10606602 0.10606602 0.10937500
-0.10606602 0.10606602 0.18750000
-0.10606602 0.10606602 0.26562500
-0.10606602 0.10606602 0.34375000
-0.10606602 0.10606602 0.42187500
-0.10606602 0.10606602 0.50000000
0.00000000 0.05000000 -0.12500000
0.00000000 0.05000000 -0.04687500
0.00000000 0.05000000 0.03125000
0.00000000 0.05000000 0.10937500
0.00000000 0.05000000 0.18750000
0.00000000 0.05000000 0.26562500
0.00000000 0.05000000 0.34375000
0.00000000 0.05000000 0.42187500
0.00000000 0.05000000 0.50000000
0.00000000 0.15000001 -0.12500000
0.00000000 0.15000001 -0.04687500
0.00000000 0.15000001 0.03125000
0.00000000 0.15000001 0.10937500
0.00000000 0.15000001 0.18750000
0.00000000 0.15000001 0.26562500
0.00000000 0.15000001 0.34375000
0.00000000 0.15000001 0.42187500
0.00000000 0.15000001 0.50000000
-0.15000001 0.00000000 -0.12500000
-0.15000001 0.00000000 -0.04687500
-0.15000001 0.00000000 0.03125000
-0.15000001 0.00000000 0.10937500
-0.15000001 0.00000000 0.18750000
-0.15000001 0.00000000 0.26562500
-0.15000001 0.00000000 0.34375000
-0.15000001 0.00000000 0.42187500
-0.15000001 0.00000000 0.50000000
-0.05000000 0.00000000 -0.12500000
-0.05000000 0.00000000 -0.04687500
-0.05000000 0.00000000 0.03125000
-0.05000000 0.00000000 0.10937500
-0.05000000 0.00000000 0.18750000
-0.05000000 0.00000000 0.26562500
-0.05000000 0.00000000 0.34375000
-0.05000000 0.00000000 0.42187500
-0.05000000 0.00000000 0.50000000
-0.01178511 0.01178511 -0.12500000
-0.01178511 0.01178511 -0.04687500
-0.01178511 0.01178511 0.03125000
-0.01178511 0.01178511 0.10937500
-0.01178511 0.01178511 0.18750000
-0.01178511 0.01178511 0.26562500
-0.01178511 0.01178511 0.34375000
-0.01178511 0.01178511 0.42187500
-0.01178511 0.01178511 0.50000000
0.03535534 0.03535534 -0.12500000
0.03535534 0.03535534 -0.04687500
0.03535534 0.03535534 0.03125000
0.03535534 0.03535534 0.10937500
0.03535534 0.03535534 0.18750000
0.03535534 0.03535534 0.26562500
0.03535534 0.03535534 0.34375000
0.03535534 0.03535534 0.42187500
0.03535534 0.03535534 0.50000000
-0.50000000 0.00000000 -0.12500000
-0.50000000 0.00000000 -0.04687500
-0.50000000 0.00000000 0.03125000
-0.50000000 0.00000000 0.10937500
-0.50000000 0.00000000 0.18750000
-0.50000000 0.00000000 0.26562500
-0.50000000 0.00000000 0.34375000
-0.50000000 0.00000000 0.42187500
-0.50000000 0.00000000 0.50000000
0.00000000 0.50000000 -0.12500000
0.00000000 0.50000000 -0.04687500
0.00000000 0.50000000 0.03125000
0.00000000 0.50000000 0.10937500
0.00000000 0.50000000 0.18750000
0.00000000 0.50000000 0.26562500
0.00000000 0.50000000 0.34375000
0.00000000 0.50000000 0.42187500
0.00000000 0.50000000 0.50000000
0.10606602 0.10606602 -0.12500000
0.10606602 0.10606602 -0.04687500
0.10606602 0.10606602 0.03125000
0.10606602 0.10606602 0.10937500
0.10606602 0.10606602 0.18750000
0.10606602 0.10606602 0.26562500
0.10606602 0.10606602 0.34375000
0.10606602 0.10606602 0.42187500
0.10606602 0.10606602 0.50000000
-0.10606602 -0.10606602 -0.12500000
-0.10606602 -0.10606602 -0.04687500
-0.10606602 -0.10606602 0.03125000
-0.10606602 -0.10606602 0.10937500
-0.10606602 -0.10606602 0.18750000
-0.10606602 -0.10606602 0.26562500
-0.10606602 -0.10606602 0.34375000
-0.10606602 -0.10606602 0.42187500
-0.10606602 -0.10606602 0.50000000
-0.03535534 -0.03535534 -0.12500000
-0.03535534 -0.03535534 -0.04687500
-0.03535534 -0.03535534 0.03125000
-0.03535534 -0.03535534 0.10937500
-0.03535534 -0.03535534 0.18750000
-0.03535534 -0.03535534 0.26562500
-0.03535534 -0.03535534 0.34375000
-0.03535534 -0.03535534 0.42187500
-0.03535534 -0.03535534 0.50000000
0.01178511 -0.01178511 -0.12500000
0.01178511 -0.01178511 -0.04687500
0.01178511 -0.01178511 0.03125000
0.01178511 -0.01178511 0.10937500
0.01178511 -0.01178511 0.18750000
0.01178511 -0.01178511 0.26562500
0.01178511 -0.01178511 0.34375000
0.01178511 -0.01178511 0.42187500
0.01178511 -0.01178511 0.50000000
0.05000000 0.00000000 -0.12500000
0.05000000 0.00000000 -0.04687500
0.05000000 0.00000000 0.03125000
0.05000000 0.00000000 0.10937500
0.05000000 0.00000000 0.18750000
0.05000000 0.00000000 0.26562500
0.05000000 0.00000000 0.34375000
0.05000000 0.00000000 0.42187500
0.05000000 0.00000000 0.50000000
-0.00000000 -0.50000000 -0.12500000
-0.00000000 -0.50000000 -0.04687500
-0.00000000 -0.50000000 0.03125000
-0.00000000 -0.50000000 0.10937500
-0.00000000 -0.50000000 0.18750000
-0.00000000 -0.50000000 0.26562500
-0.00000000 -0.50000000 0.34375000
-0.00000000 -0.50000000 0.42187500
-0.00000000 -0.50000000 0.50000000
0.50000000 0.00000000 -0.12500000
0.50000000 0.00000000 -0.04687500
0.50000000 0.00000000 0.03125000
0.50000000 0.00000000 0.10937500
0.50000000 0.00000000 0.18750000
0.50000000 0.00000000 0.26562500
0.50000000 0.00000000 0.34375000
0.50000000 0.00000000 0.42187500
0.50000000 0.00000000 0.50000000
-0.00000000 -0.15000001 -0.12500000
-0.00000000 -0.15000001 -0.04687500
-0.00000000 -0.15000001 0.03125000
-0.00000000 -0.15000001 0.10937500
-0.00000000 -0.15000001 0.18750000
-0.00000000 -0.15000001 0.26562500
-0.00000000 -0.15000001 0.34375000
-0.00000000 -0.15000001 0.42187500
-0.00000000 -0.15000001 0.50000000
0.15000001 0.00000000 -0.12500000
0.15000001 0.00000000 -0.04687500
0.15000001 0.00000000 0.03125000
0.15000001 0.00000000 0.10937500
0.15000001 0.00000000 0.18750000
0.15000001 0.00000000 0.26562500
0.15000001 0.00000000 0.34375000
0.15000001 0.00000000 0.42187500
0.15000001 0.00000000 0.50000000
0.03535534 -0.03535534 -0.12500000
0.03535534 -0.03535534 -0.04687500
0.03535534 -0.03535534 0.03125000
0.03535534 -0.03535534 0.10937500
0.03535534 -0.03535534 0.18750000
0.03535534 -0.03535534 0.26562500
0.03535534 -0.03535534 0.34375000
0.03535534 -0.03535534 0.42187500
0.03535534 -0.03535534 0.50000000
-0.00000000 -0.05000000 -0.12500000
-0.00000000 -0.05000000 -0.04687500
-0.00000000 -0.05000000 0.03125000
-0.00000000 -0.05000000 0.10937500
-0.00000000 -0.05000000 0.18750000
-0.00000000 -0.05000000 0.26562500
-0.00000000 -0.05000000 0.34375000
-0.00000000 -0.05000000 0.42187500
-0.00000000 -0.05000000 0.50000000
0.10606602 -0.10606602 -0.12500000
0.10606602 -0.10606602 -0.04687500
0.10606602 -0.10606602 0.03125000
0.10606602 -0.10606602 0.10937500
0.10606602 -0.10606602 0.18750000
0.10606602 -0.10606602 0.26562500
0.10606602 -0.10606602 0.34375000
0.10606602 -0.10606602 0.42187500
0.10606602 -0.10606602 0.50000000

CELLS 1308 6144
4 133 134 70 124
4 70 125 124 134
4 70 125 134 71
4 132 133 69 123
4 69 124 123 133
4 69 124 133 70
4 131 132 68 122
4 68 123 122 132
4 68 123 132 69
4 130 131 67 121
4 67 122 121 131
4 67 122 131 68
4 129 130 66 120
4 66 121 120 130
4 66 121 130 67
4 128 129 65 119
4 65 120 119 129
4 65 120 129 66
4 127 128 64 118
4 64 119 118 128
4 64 119 128 65
4 126 127 63 117
4 63 118 117 127
4 63 118 127 64
4 61 62 25 7
4 25 26 7 62
4 7 8 62 26
4 60 61 24 6
4 24 25 6 61
4 6 7 61 25
4 59 60 23 5
4 23 24 5 60
4 5 6 60 24
4 58 59 22 4
4 22 23 4 59
4 4 5 59 23
4 57 58 21 3
4 21 22 3 58
4 3 4 58 22
4 56 57 20 2
4 20 21 2 57
4 2 3 57 21
4 55 56 19 1
4 19 20 1 56
4 1 2 56 20
4 54 55 18 0
4 18 19 0 55
4 0 1 55 19
4 61 62 7 52
4 7 53 52 62
4 7 53 62 8
4 60 61 6 51
4 6 52 51 61
4 6 52 61 7
4 59 60 5 50
4 5 51 50 60
4 5 51 60 6
4 58 59 4 49
4 4 50 49 59
4 4 50 59 5
4 57 58 3 48
4 3 49 48 58
4 3 49 58 4
4 56 57 2 47
4 2 48 47 57
4 2 48 57 3
4 55 56 1 46
4 1 47 46 56
4 1 47 56 2
4 54 55 0 45
4 0 46 45 55
4 0 46 55 1
4 115 116 61 52
4 61 62 52 116
4 52 53 116 62
4 114 115 60 51
4 60 61 51 115
4 51 52 115 61
4 113 114 59 50
4 59 60 50 114
4 50 51 114 60
4 112 113 58 49
4 58 59 49 113
4 49 50 113 59
4 111 112 57 48
4 57 58 48 112
4 48 49 112 58
4 110 111 56 47
4 56 57 47 111
4 47 48 111 57
4 109 110 55 46
4 55 56 46 110
4 46 47 110 56
4 108 109 54 45
4 54 55 45 109
4 45 46 109 55
4 124 125 70 61
4 70 71 61 125
4 61 62 125 71
4 123 124 69 60
4 69 70 60 124
4 60 61 124 70
4 122 123 68 59
4 68 69 59 123
4 59 60 123 69
4 121 122 67 58
4 67 68 58 122
4 58 59 122 68
4 120 121 66 57
4 66 67 57 121
4 57 58 121 67
4 119 120 65 56
4 65 66 56 120
4 56 57 120 66
4 118 119 64 55
4 64 65 55 119
4 55 56 119 65
4 117 118 63 54
4 63 64 54 118
4 54 55 118 64
4 133 179 124 178
4 133 134 124 179
4 124 179 134 125
4 132 178 123 177
4 132 133 123 178
4 123 178 133 124
4 131 177 122 176
4 131 132 122 177
4 122 177 132 123
4 130 176 121 175
4 130 131 121 176
4 121 176 131 122
4 129 175 120 174
4 129 130 120 175
4 120 175 130 121
4 128 174 119 173
4 128 129 119 174
4 119 174 129 120
4 127 173 118 172
4 127 128 118 173
4 118 173 128 119
4 126 172 117 171
4 126 127 117 172
4 117 172 127 118
4 70 71 25 61
4 25 62 61 71
4 25 62 71 26
4 69 70 24 60
4 24 61 60 70
4 24 61 70 25
4 68 69 23 59
4 23 60 59 69
4 23 60 69 24
4 67 68 22 58
4 22 59 58 68
4 22 59 68 23
4 66 67 21 57
4 21 58 57 67
4 21 58 67 22
4 65 66 20 56
4 20 57 56 66
4 20 57 66 21
4 64 65 19 55
4 19 56 55 65
4 19 56 65 20
4 63 64 18 54
4 18 55 54 64
4 18 55 64 19
4 115 125 124 61
4 115 125 61 116
4 61 62 116 125
4 114 124 123 60
4 114 124 60 115
4 60 61 115 124
4 113 123 122 59
4 113 123 59 114
4 59 60 114 123
4 112 122 121 58
4 112 122 58 113
4 58 59 113 122
4 111 121 120 57
4 111 121 57 112
4 57 58 112 121
4 110 120 119 56
4 110 120 56 111
4 56 57 111 120
4 109 119 118 55
4 109 119 55 110
4 55 56 110 119
4 108 118 117 54
4 108 118 54 109
4 54 55 109 118
4 124 188 187 178
4 124 188 178 179
4 124 179 125 188
4 123 187 186 177
4 123 187 177 178
4 123 178 124 187
4 122 186 185 176
4 122 186 176 177
4 122 177 123 186
4 121 185 184 175
4 121 185 175 176
[...]
CELL_DATA 1308
Scalars  Label int1
LOOKUP_TABLE FreeFempp_table
0
0
0
0
0
0
0
0
0
0
0
0
0
0
0
0
0
0
0
0
0
0
0
0
0
0
0
0
0
0
0
0
0
0
0
0
0
0
0
0
0
0
0
0
0
0
0
0
0
0
0
0
0
0
0
0
0
0
0
0
0
0
0
0
0
0
0
0
0
0
0
0
0
0
0
0
0
0
0
0
0
0
0
0
0
0
0
0
0
0
0
0
0
0
0
0
0
0
0
0
0
0
0
0
0
0
0
0
0
0
0
0
0
0
0
0
0
0
0
0
0
0
0
0
0
0
0
0
0
0
0
0
0
0
0
0
0
0
0
0
0
0
0
0
0
0
0
0
0
0
0
0
0
0
0
0
0
0
0
0
0
0
0
0
0
0
0
0
0
0
0
0
0
0
0
0
0
0
0
0
0
0
0
0
0
0
0
0
0
0
0
0
0
0
0
0
0
0
0
0
0
0
0
0
0
0
0
0
0
0
0
0
0
0
0
0
0
0
0
0
0
0
0
0
0
0
0
0
0
0
0
0
0
0
0
0
0
0
0
0
1
1
1
1
1
1
1
1
1
1
1
1
1
1
1
1
1
1
1
1
1
1
1
1
1
1
1
1
1
1
1
1
1
1
1
1
1
1
1
1
1
1
1
1
1
1
1
1
1
1
1
1
1
1
1
1
1
1
1
1
1
1
1
1
1
1
1
1
1
1
1
1
1
1
1
1
1
1
1
1
1
1
1
1
1
1
1
1
1
1
1
1
1
1
1
1
1
1
1
1
1
1
1
1
1
1
1
1
1
1
1
1
1
1
1
1
1
1
1
1
1
1
1
1
1
1
1
1
1
1
1
1
1
1
1
1
1
1
1
1
1
1
1
1
1
1
1
1
1
1
1
1
1
1
1
1
1
1
1
1
1
1
1
1
1
1
1
1
1
1
1
1
1
1
1
1
1
1
1
1
1
1
1
1
1
1
1
1
1
1
1
1
1
1
1
1
1
1
1
1
1
1
1
1
1
1
1
1
1
1
1
1
1
1
1
1
1
1
1
1
1
1
1
1
1
1
1
1
1
1
1
1
1
1
1
1
1
1
1
1
1
1
1
1
1
1
1
1
1
1
1
1
1
1
1
1
1
1
1
1
1
1
1
1
1
1
1
1
1
1
1
1
1
1
1
1
1
1
1
1
1
1
1
1
1
1
1
1
1
1
1
1
1
1
1
1
1
1
1
1
1
1
1
1
1
1
1
1
1
1
1
1
1
1
1
1
1
1
1
1
1
1
1
1
1
1
1
1
1
1
1
1
1
1
1
1
1
1
1
1
1
1
1
1
1
1
1
1
1
1
1
1
1
1
1
1
1
1
1
1
1
1
1
1
1
1
1
1
1
1
1
1
1
1
1
1
1
1
1
1
1
1
1
1
2
2
2
2
2
2
2
2
2
2
2
2
2
2
2
2
2
2
2
2
2
2
2
2
2
2
2
2
2
2
2
2
2
2
2
2
2
2
2
2
2
2
2
2
2
2
2
2
2
2
2
2
2
2
2
2
2
2
2
2
2
2
2
2
2
2
2
2
2
2
2
2
2
2
2
2
2
2
2
2
2
2
2
2
2
2
2
2
2
2
2
2
2
2
2
2
2
2
2
2
2
2
2
2
2
2
2
2
2
2
2
2
2
2
2
2
2
2
2
2
2
2
2
2
2
2
2
2
2
2
2
2
2
2
2
2
2
2
2
2
2
2
2
2
2
2
2
2
2
2
2
2
2
2
2
2
2
2
2
2
2
2
2
2
2
2
2
2
2
2
2
2
2
2
2
2
2
2
2
2
2
2
2
2
2
2
2
2
2
2
2
2
2
2
2
2
2
2
2
2
2
2
2
2
2
2
2
2
2
2
2
2
2
2
2
2
2
2
2
2
2
2
2
2
2
2
2
2
2
2
2
2
2
2
2
2
2
2
2
2
2
2
2
2
2
2
2
2
2
2
2
2
2
2
2
2
2
2
2
2
2
2
2
2
2
2
2
2
2
2
2
2
2
2
2
2
2
2
2
2
2
2
2
2
2
2
2
2
1
1
1
1
1
1
1
1
1
1
1
1
1
1
1
1
1
1
1
1
1
1
1
1
1
1
2
2
2
2
2
2
2
2
2
2
2
2
1
1
1
1
1
1
1
1
1
1
1
1
1
1
1
1
1
1
1
1
1
1
1
1
1
1
2
2
2
2
2
2
2
2
2
2
2
2
1
1
1
1
1
1
1
1
1
1
1
1
1
1
1
1
1
1
1
1
1
1
1
1
1
1
1
1
1
1
1
1
1
1
1
1
1
1
1
1
1
1
1
1
1
1
1
1
1
1
1
1
1
1
1
1
1
1
1
1
1
1
1
1
1
1
1
1
1
1
1
1
1
1
1
1
1
1
1
1
1
1
1
1
1
1
1
1
1
1
1
1
1
1
1
1
1
1
1
1
1
1
1
1
1
1
1
1
1
1
1
1
1
1
1
1
1
1
1
1
1
1
1
1
1
1
1
1
1
1
1
1
1
1
1
1
1
1
1
1
1
1
1
1
1
1
1
1
1
1
1
1
1
1
1
1
1
1
1
1
1
1
1
1
1
1
1
1
1
1
1
1
1
1
1
1
1
1
1
1
1
1
1
1
1
1
1
1
1
1
1
1
1
1
1
1
1
1
1
1
1
1
1
1
1
1
1
1
1
1
1
1
1
1
1
1
1
1
1
1
1
1
1
1
1
1
1
1
1
1
1
1
1
1
1
1
1
1
1
1
1
1
1
1
1
1
1
1
1
1
1
1
1
1
1
1
1
1
1
1
1
1
1
1
1
1
1
1
1
1
1
1
1
1
1
1
1
1
1
1
1
1
1
1
1
1
1
1
1
1
1
1
1
1
1
1
1
1
1
1
1
1
1
1
1
1
1
1
1
1
1
1
1
1
1
1
1
1
1
1

LOOKUP_TABLE FreeFempp_table 3
1.00000000 0.00000000 0.00000000 1.00000000
1.00000000 1.00000000 0.00000000 1.00000000
1.00000000 0.00000000 1.00000000 1.00000000

FIELD FieldData 2
NavSto 3 1308 float
1.49014543e-08 3.07406754e-06 -3.12480574e-06 1.49014543e-08 3.07406754e-06 -3.12480574e-06 1.22311215e-39 2.00930393e-37 -2.22917484e-37 2.72017768e-08 4.14298438e-06 -4.22581161e-06 4.21032311e-08 7.21705192e-06 -7.35061712e-06 1.49014543e-08 3.07406754e-06 -3.12480574e-06 3.39018627e-08 4.41438397e-06 -4.51416963e-06 6.11036413e-08 8.55736835e-06 -8.73998124e-06 2.72017768e-08 4.14298438e-06 -4.22581161e-06 3.55918388e-08 4.45390924e-06 -4.55726513e-06 6.94937015e-08 8.86829275e-06 -9.07143476e-06 3.39018627e-08 4.41438397e-06 -4.51416963e-06 3.28144232e-08 4.36051687e-06 -4.45453998e-06 6.84062584e-08 8.81442611e-06 -9.01180465e-06 3.55918388e-08 4.45390924e-06 -4.55726513e-06 2.51818157e-08 3.92857100e-06 -3.99874807e-06 5.79962389e-08 8.28908742e-06 -8.45328759e-06 3.28144232e-08 4.36051687e-06 -4.45453998e-06 1.64306204e-08 2.49397567e-06 -2.53325084e-06 4.16124379e-08 6.42254645e-06 -6.53199868e-06 2.51818157e-08 3.92857100e-06 -3.99874807e-06 8.82669074e-39 2.09536137e-37 -2.25388724e-37 1.64306204e-08 2.49397567e-06 -2.53325084e-06 1.64306204e-08 2.49397567e-06 -2.53325084e-06 1.50233532e-08 2.50251696e-06 -2.54095585e-06 9.35003789e-40 3.96366261e-37 -4.01877243e-37 9.45049697e-40 2.11714495e-37 -2.18303579e-37 3.75512990e-08 6.46541230e-06 -6.57183136e-06 1.50233532e-08 2.50251696e-06 -2.54095585e-06 1.50233532e-08 2.50251696e-06 -2.54095585e-06 5.32414894e-08 8.36598610e-06 -8.52707490e-06 2.25279457e-08 3.96289533e-06 -4.03087552e-06 2.25279457e-08 3.96289533e-06 -4.03087552e-06 6.47038050e-08 8.90139381e-06 -9.09765367e-06 3.07135437e-08 4.40309077e-06 -4.49619984e-06 3.07135437e-08 4.40309077e-06 -4.49619984e-06 6.66538469e-08 8.95737867e-06 -9.16050249e-06 3.39902613e-08 4.49830304e-06 -4.60145429e-06 3.39902613e-08 4.49830304e-06 -4.60145429e-06 5.92338125e-08 8.64543199e-06 -8.82920995e-06 3.26635821e-08 4.45907608e-06 -4.55904774e-06 3.26635821e-08 4.45907608e-06 -4.55904774e-06 4.15714503e-08 7.29489784e-06 -7.43113560e-06 2.65702322e-08 4.18635636e-06 -4.27016221e-06 2.65702322e-08 4.18635636e-06 -4.27016221e-06 1.50012163e-08 3.10854170e-06 -3.16097316e-06 1.50012163e-08 3.10854170e-06 -3.16097316e-06 1.50012163e-08 3.10854170e-06 -3.16097316e-06 1.50233532e-08 2.50251696e-06 -2.54095585e-06 5.41517919e-39 3.91119396e-37 -4.07857716e-37 2.23958323e-39 2.10839300e-37 -2.21732075e-37 3.75512990e-08 6.46541230e-06 -6.57183136e-06 1.50233532e-08 2.50251696e-06 -2.54095585e-06 1.50233532e-08 2.50251696e-06 -2.54095585e-06 5.32414894e-08 8.36598610e-06 -8.52707490e-06 2.25279457e-08 3.96289533e-06 -4.03087552e-06 2.25279457e-08 3.96289533e-06 -4.03087552e-06 6.47038050e-08 8.90139381e-06 -9.09765367e-06 3.07135437e-08 4.40309077e-06 -4.49619984e-06 3.07135437e-08 4.40309077e-06 -4.49619984e-06 6.66538469e-08 8.95737867e-06 -9.16050249e-06 3.39902613e-08 4.49830304e-06 -4.60145429e-06 3.39902613e-08 4.49830304e-06 -4.60145429e-06 5.92338125e-08 8.64543199e-06 -8.82920995e-06 3.26635821e-08 4.45907608e-06 -4.55904774e-06 3.26635821e-08 4.45907608e-06 -4.55904774e-06 4.15714503e-08 7.29489784e-06 -7.43113560e-06 2.65702322e-08 4.18635636e-06 -4.27016221e-06 2.65702322e-08 4.18635636e-06 -4.27016221e-06 1.50012163e-08 3.10854170e-06 -3.16097316e-06 1.50012163e-08 3.10854170e-06 -3.16097316e-06 1.50012163e-08 3.10854170e-06 -3.16097316e-06 1.50233532e-08 2.50251696e-06 -2.54095585e-06 1.50233532e-08 2.50251696e-06 -2.54095585e-06 8.93024950e-39 2.08698990e-37 -2.26159236e-37 2.25279457e-08 3.96289533e-06 -4.03087552e-06 3.75512990e-08 6.46541230e-06 -6.57183136e-06 1.50233532e-08 2.50251696e-06 -2.54095585e-06 3.07135437e-08 4.40309077e-06 -4.49619984e-06 5.32414894e-08 8.36598610e-06 -8.52707490e-06 2.25279457e-08 3.96289533e-06 -4.03087552e-06 3.39902613e-08 4.49830304e-06 -4.60145429e-06 6.47038050e-08 8.90139381e-06 -9.09765367e-06 3.07135437e-08 4.40309077e-06 -4.49619984e-06 3.26635821e-08 4.45907608e-06 -4.55904774e-06 6.66538469e-08 8.95737867e-06 -9.16050249e-06 3.39902613e-08 4.49830304e-06 -4.60145429e-06 2.65702322e-08 4.18635636e-06 -4.27016221e-06 5.92338125e-08 8.64543199e-06 -8.82920995e-06 3.26635821e-08 4.45907608e-06 -4.55904774e-06 1.50012163e-08 3.10854170e-06 -3.16097316e-06 4.15714503e-08 7.29489784e-06 -7.43113560e-06 2.65702322e-08 4.18635636e-06 -4.27016221e-06 2.96158825e-40 2.04827079e-37 -2.25811512e-37 1.50012163e-08 3.10854170e-06 -3.16097316e-06 1.50012163e-08 3.10854170e-06 -3.16097316e-06 2.99248093e-08 5.57658450e-06 -5.66576182e-06 1.50233532e-08 2.50251696e-06 -2.54095585e-06 1.50233532e-08 2.50251696e-06 -2.54095585e-06 6.46311804e-08 1.11799473e-05 -1.13814931e-05 3.74293982e-08 7.03696242e-06 -7.15568149e-06 5.24527550e-08 9.53947983e-06 -9.69663779e-06 9.18171850e-08 1.29604596e-05 -1.32361802e-05 5.79153223e-08 8.54607515e-06 -8.72201144e-06 8.04432645e-08 1.25089700e-05 -1.27528865e-05 1.03483963e-07 1.33665962e-05 -1.36728886e-05 6.78921239e-08 8.91268701e-06 -9.11562347e-06 9.86056676e-08 1.33157782e-05 -1.36118233e-05 1.01069844e-07 1.32735022e-05 -1.35708524e-05 6.82554173e-08 8.91298532e-06 -9.11631287e-06 1.02245686e-07 1.34112879e-05 -1.37177676e-05 8.45664729e-08 1.24754442e-05 -1.27234498e-05 5.93846536e-08 8.54687278e-06 -8.72470173e-06 9.20482393e-08 1.30059489e-05 -1.32837495e-05 5.66136542e-08 9.53108793e-06 -9.69297162e-06 4.01830320e-08 7.03711248e-06 -7.15972101e-06 6.67532660e-08 1.12234684e-05 -1.14298837e-05 1.64306204e-08 2.49397567e-06 -2.53325084e-06 1.64306204e-08 2.49397567e-06 -2.53325084e-06 3.14318349e-08 5.60251738e-06 -5.69422400e-06 1.49014543e-08 3.07406754e-06 -3.12480574e-06 1.49014543e-08 3.07406754e-06 -3.12480574e-06 1.49014543e-08 3.07406754e-06 -3.12480574e-06 2.72017768e-08 4.14298438e-06 -4.22581161e-06 2.72017768e-08 4.14298438e-06 -4.22581161e-06 4.21032311e-08 7.21705192e-06 -7.35061712e-06 3.39018627e-08 4.41438397e-06 -4.51416963e-06 3.39018627e-08 4.41438397e-06 -4.51416963e-06 6.11036413e-08 8.55736835e-06 -8.73998124e-06 3.55918388e-08 4.45390924e-06 -4.55726513e-06 3.55918388e-08 4.45390924e-06 -4.55726513e-06 6.94937015e-08 8.86829275e-06 -9.07143476e-06 3.28144232e-08 4.36051687e-06 -4.45453998e-06 3.28144232e-08 4.36051687e-06 -4.45453998e-06 6.84062584e-08 8.81442611e-06 -9.01180465e-06 2.51818157e-08 3.92857100e-06 -3.99874807e-06 2.51818157e-08 3.92857100e-06 -3.99874807e-06 5.79962389e-08 8.28908742e-06 -8.45328759e-06 1.64306204e-08 2.49397567e-06 -2.53325084e-06 1.64306204e-08 2.49397567e-06 -2.53325084e-06 4.16124379e-08 6.42254645e-06 -6.53199868e-06 2.08859192e-39 2.50846079e-37 -2.62347108e-37 5.67371735e-39 4.31526073e-37 -4.47345499e-37 1.64306204e-08 2.49397567e-06 -2.53325084e-06 1.50233532e-08 2.50251696e-06 -2.54095585e-06 1.50233532e-08 2.50251696e-06 -2.54095585e-06 1.00068965e-39 2.13083126e-37 -2.17183729e-37 2.25279457e-08 3.96289533e-06 -4.03087552e-06 3.75512990e-08 6.46541230e-06 -6.57183136e-06 1.50233532e-08 2.50251696e-06 -2.54095585e-06 3.07135437e-08 4.40309077e-06 -4.49619984e-06 5.32414894e-08 8.36598610e-06 -8.52707490e-06 2.25279457e-08 3.96289533e-06 -4.03087552e-06 3.39902613e-08 4.49830304e-06 -4.60145429e-06 6.47038050e-08 8.90139381e-06 -9.09765367e-06 3.07135437e-08 4.40309077e-06 -4.49619984e-06 3.26635821e-08 4.45907608e-06 -4.55904774e-06 6.66538469e-08 8.95737867e-06 -9.16050249e-06 3.39902613e-08 4.49830304e-06 -4.60145429e-06 2.65702322e-08 4.18635636e-06 -4.27016221e-06 5.92338125e-08 8.64543199e-06 -8.82920995e-06 3.26635821e-08 4.45907608e-06 -4.55904774e-06 1.50012163e-08 3.10854170e-06 -3.16097316e-06 4.15714503e-08 7.29489784e-06 -7.43113560e-06 2.65702322e-08 4.18635636e-06 -4.27016221e-06 1.35996170e-38 2.15442218e-37 -2.35958281e-37 1.50012163e-08 3.10854170e-06 -3.16097316e-06 1.50012163e-08 3.10854170e-06 -3.16097316e-06 2.99248093e-08 5.57658450e-06 -5.66576182e-06 1.50233532e-08 2.50251696e-06 -2.54095585e-06 1.50233532e-08 2.50251696e-06 -2.54095585e-06 6.46311804e-08 1.11799473e-05 -1.13814931e-05 3.74293982e-08 7.03696242e-06 -7.15568149e-06 5.24527550e-08 9.53947983e-06 -9.69663779e-06 9.18171850e-08 1.29604596e-05 -1.32361802e-05 5.79153223e-08 8.54607515e-06 -8.72201144e-06 8.04432645e-08 1.25089700e-05 -1.27528865e-05 1.03483963e-07 1.33665962e-05 -1.36728886e-05 6.78921239e-08 8.91268701e-06 -9.11562347e-06 9.86056676e-08 1.33157782e-05 -1.36118233e-05 1.01069844e-07 1.32735022e-05 -1.35708524e-05 6.82554173e-08 8.91298532e-06 -9.11631287e-06 1.02245686e-07 1.34112879e-05 -1.37177676e-05 8.45664729e-08 1.24754442e-05 -1.27234498e-05 5.93846536e-08 8.54687278e-06 -8.72470173e-06 9.20482393e-08 1.30059489e-05 -1.32837495e-05 5.66136542e-08 9.53108793e-06 -9.69297162e-06 4.01830320e-08 7.03711248e-06 -7.15972101e-06 6.67532660e-08 1.12234684e-05 -1.14298837e-05 1.64306204e-08 2.49397567e-06 -2.53325084e-06 1.64306204e-08 2.49397567e-06 -2.53325084e-06 3.14318349e-08 5.60251738e-06 -5.69422400e-06 1.49014543e-08 3.07406754e-06 -3.12480574e-06 1.49014543e-08 3.07406754e-06 -3.12480574e-06 1.49014543e-08 3.07406754e-06 -3.12480574e-06 2.72017768e-08 4.14298438e-06 -4.22581161e-06 2.72017768e-08 4.14298438e-06 -4.22581161e-06 4.21032311e-08 7.21705192e-06 -7.35061712e-06 3.39018627e-08 4.41438397e-06 -4.51416963e-06 3.39018627e-08 4.41438397e-06 -4.51416963e-06 6.11036413e-08 8.55736835e-06 -8.73998124e-06 3.55918388e-08 4.45390924e-06 -4.55726513e-06 3.55918388e-08 4.45390924e-06 -4.55726513e-06 6.94937015e-08 8.86829275e-06 -9.07143476e-06 3.28144232e-08 4.36051687e-06 -4.45453998e-06 3.28144232e-08 4.36051687e-06 -4.45453998e-06 6.84062584e-08 8.81442611e-06 -9.01180465e-06 2.51818157e-08 3.92857100e-06 -3.99874807e-06 2.51818157e-08 3.92857100e-06 -3.99874807e-06 5.79962389e-08 8.28908742e-06 -8.45328759e-06 1.64306204e-08 2.49397567e-06 -2.53325084e-06 1.64306204e-08 2.49397567e-06 -2.53325084e-06 4.16124379e-08 6.42254645e-06 -6.53199868e-06 9.28725972e-40 2.47937118e-37 -2.52047183e-37 9.27037407e-40 3.94613988e-37 -4.02654437e-37 1.64306204e-08 2.49397567e-06 -2.53325084e-06 1.49014543e-08 3.07406754e-06 -3.12480574e-06 1.49014543e-08 3.07406754e-06 -3.12480574e-06 1.31972440e-38 2.62370134e-37 -2.83649243e-37 2.72017768e-08 4.14298438e-06 -4.22581161e-06 4.21032311e-08 7.21705192e-06 -7.35061712e-06 1.49014543e-08 3.07406754e-06 -3.12480574e-06 3.39018627e-08 4.41438397e-06 -4.51416963e-06 6.11036413e-08 8.55736835e-06 -8.73998124e-06 2.72017768e-08 4.14298438e-06 -4.22581161e-06 3.55918388e-08 4.45390924e-06 -4.55726513e-06 6.94937015e-08 8.86829275e-06 -9.07143476e-06 3.39018627e-08 4.41438397e-06 -4.51416963e-06 3.28144232e-08 4.36051687e-06 -4.45453998e-06 6.84062584e-08 8.81442611e-06 -9.01180465e-06 3.55918388e-08 4.45390924e-06 -4.55726513e-06 2.51818157e-08 3.92857100e-06 -3.99874807e-06 5.79962389e-08 8.28908742e-06 -8.45328759e-06 3.28144232e-08 4.36051687e-06 -4.45453998e-06 1.64306204e-08 2.49397567e-06 -2.53325084e-06 4.16124379e-08 6.42254645e-06 -6.53199868e-06 2.51818157e-08 3.92857100e-06 -3.99874807e-06 6.42642482e-40 1.72130403e-37 -1.76690643e-37 1.64306204e-08 2.49397567e-06 -2.53325084e-06 1.64306204e-08 2.49397567e-06 -2.53325084e-06 -3.50301635e-39 1.23266296e-37 -1.29153689e-37 -5.25781197e-39 5.05614382e-38 -5.87819819e-38 6.25136061e-40 -7.39820681e-38 7.35973724e-38 4.42282025e-40 1.94901335e-37 -2.02265461e-37 -3.56797354e-39 3.20266943e-37 -3.32463217e-37 2.58752984e-39 1.25094553e-37 -1.27260725e-37 3.54776962e-39 2.13823752e-37 -2.22884054e-37 8.12642407e-40 4.10074637e-37 -4.26967033e-37 7.96365204e-39 1.97565326e-37 -2.01791530e-37 5.41696024e-39 2.19051402e-37 -2.28766683e-37 3.54275577e-39 4.33748106e-37 -4.53070331e-37 1.11102902e-38 2.16851431e-37 -2.22680720e-37 6.83310406e-39 2.22790268e-37 -2.31918528e-37 5.42515923e-39 4.42463151e-37 -4.61837392e-37 1.26753107e-38 2.22248448e-37 -2.28786121e-37 8.44186056e-39 2.25708623e-37 -2.32643750e-37 7.39131550e-39 4.48934684e-37 -4.65535923e-37 1.33568771e-38 2.25899043e-37 -2.32322259e-37 1.05503159e-38 1.79971183e-37 -1.84978124e-37 1.03296814e-38 4.06129612e-37 -4.18130512e-37 1.35628161e-38 2.28448711e-37 -2.33371215e-37 4.66776022e-39 -2.07490964e-39 -7.95968076e-39 7.40398184e-39 1.78158486e-37 -1.92066653e-37 1.16917590e-38 1.80954502e-37 -1.90869586e-37 -2.58347729e-39 1.85833655e-37 -1.99007251e-37 3.29947074e-39 6.12901492e-38 -6.66279024e-38 -1.15758464e-40 -1.60530874e-38 7.75961458e-39 3.11953701e-39 4.66943051e-37 -4.87315554e-37 9.27504039e-39 2.71770649e-37 -2.82113061e-37 5.85882748e-39 4.05214620e-37 -4.24231294e-37 9.12981542e-39 5.54397214e-37 -5.81375012e-37 1.62808237e-38 3.41887880e-37 -3.56199532e-37 1.54469642e-38 4.85899996e-37 -5.11525776e-37 1.22966364e-38 5.77388508e-37 -6.07290469e-37 1.98641708e-38 3.60491855e-37 -3.76900813e-37 2.06188219e-38 5.01786730e-37 -5.31512149e-37 1.40749262e-38 5.87398891e-37 -6.16813783e-37 2.13250777e-38 3.67184187e-37 -3.83762512e-37 2.28206079e-38 5.07627566e-37 -5.37963144e-37 1.54208398e-38 5.97464743e-37 -6.22399784e-37 2.13864000e-38 3.74429080e-37 -3.89186143e-37 2.35123953e-38 5.16256067e-37 -5.43758780e-37 1.69941308e-38 5.46606039e-37 -5.63713136e-37 2.02272669e-38 3.68925160e-37 -3.78953839e-37 2.31358342e-38 5.14715087e-37 -5.35090235e-37 9.00588459e-39 1.03314675e-37 -1.19528416e-37 1.32936617e-38 1.06110703e-37 -1.18331348e-37 1.88166680e-38 2.45603811e-37 -2.58022521e-37 6.12670390e-39 3.19049226e-37 -3.20611887e-37 2.71147469e-39 2.41705981e-37 -2.46224373e-37 4.52510103e-40 1.06627535e-37 -1.03050940e-37 1.36012986e-38 3.85263673e-37 -3.85257619e-37 1.01850871e-38 5.18707644e-37 -5.27375874e-37 4.57001545e-39 5.57085734e-37 -5.56135810e-37 2.00253888e-38 3.86266509e-37 -3.86259783e-37 1.91915280e-38 5.30278603e-37 -5.41586027e-37 1.11903604e-38 6.24814636e-37 -6.20520385e-37 2.29646236e-38 3.84646025e-37 -3.84558405e-37 2.37192746e-38 5.25940900e-37 -5.39169740e-37 1.59748319e-38 6.22929991e-37 -6.19092854e-37 2.37592789e-38 3.81832263e-37 -3.80885030e-37 2.52548091e-38 5.22275641e-37 -5.35085706e-37 1.78312889e-38 6.16190754e-37 -6.12070578e-37 2.29284995e-38 3.66488269e-37 -3.63980124e-37 2.50544935e-38 5.08315211e-37 -5.18552761e-37 1.80512255e-38 5.94106111e-37 -5.88730326e-37 2.01163737e-38 2.84502690e-37 -2.79684510e-37 2.30249411e-38 4.30292661e-37 -4.35820952e-37 1.68520462e-38 5.05101462e-37 -4.97924437e-37 1.08401787e-38 -1.40514251e-37 1.32802984e-37 1.63631864e-38 -1.02114301e-39 -6.88819050e-39 1.44297546e-38 2.15558649e-37 -2.13309509e-37 3.87048865e-39 1.87891771e-37 -1.78454922e-37 3.99413503e-40 1.88849945e-37 -1.77641138e-37 3.96664155e-40 1.84928944e-37 -1.76624658e-37 7.72516225e-39 2.45508724e-37 -2.29792231e-37 2.05273409e-39 2.47795240e-37 -2.29753511e-37 2.31380020e-39 4.25928278e-37 -4.13978857e-37 1.22174757e-38 2.50375781e-37 -2.31606386e-37 5.50747851e-39 2.54632948e-37 -2.31467243e-37 5.31422264e-39 4.85059710e-37 -4.65054953e-37 1.44643163e-38 2.50050859e-37 -2.30318223e-37 7.41105419e-39 2.55455006e-37 -2.30276139e-37 8.16691879e-39 4.87039240e-37 -4.64439457e-37 1.51854413e-38 2.45974022e-37 -2.26136053e-37 8.18066413e-39 2.51822235e-37 -2.26096503e-37 9.33098163e-39 4.81595611e-37 -4.57830396e-37 1.48072588e-38 2.26406851e-37 -2.07769470e-37 8.35941656e-39 2.32375576e-37 -2.07593130e-37 9.47738929e-39 4.58247915e-37 -4.33981327e-37 1.29900578e-38 1.51019639e-37 -1.35071148e-37 7.77738444e-39 1.56728159e-37 -1.34996913e-37 8.73080409e-39 3.65020044e-37 -3.41713805e-37 8.36304733e-39 -6.30094976e-38 5.63112348e-38 6.75973768e-39 -5.69994518e-38 6.12334358e-38 7.30344008e-39 8.20755869e-38 -6.86961293e-38 -3.18841503e-39 1.88134879e-37 -1.79290914e-37 -3.19116298e-39 1.84213878e-37 -1.78274435e-37 -3.70030095e-39 -3.28782455e-40 6.71645297e-39 -5.46353660e-39 2.47753380e-37 -2.29639523e-37 -5.20247049e-39 4.25886441e-37 -4.13864869e-37 -7.23361057e-39 1.87134856e-37 -1.79990723e-37 -5.70636340e-39 2.54584385e-37 -2.31492219e-37 -5.89961928e-39 4.85011147e-37 -4.65079974e-37 -1.10049504e-38 2.45418324e-37 -2.29703221e-37 -5.73863951e-39 2.55419649e-37 -2.30312124e-37 -4.98277491e-39 4.87003905e-37 -4.64475465e-37 -1.21460599e-38 2.50291838e-37 -2.31667348e-37 -5.70785579e-39 2.51826719e-37 -2.26117803e-37 -4.55753828e-39 4.81600095e-37 -4.57851651e-37 -1.25738974e-38 2.50019963e-37 -2.30375485e-37 -5.40233489e-39 2.32452187e-37 -2.07643756e-37 -4.28436075e-39 4.58324505e-37 -4.34031953e-37 -1.24648287e-38 2.46055141e-37 -2.26207957e-37 -4.68734897e-39 1.56884690e-37 -1.35109061e-37 -3.73392791e-39 3.65176564e-37 -3.41825931e-37 -1.14192246e-38 2.26640005e-37 -2.07932244e-37 -1.60185650e-39 -5.71935372e-38 5.57910448e-38 -1.05815410e-39 8.18814958e-38 -7.41385203e-38 -7.83626840e-39 1.50982073e-37 -1.40625682e-37 -3.20100430e-39 2.89195583e-37 -2.89394208e-37 -3.71014227e-39 1.04652927e-37 -1.04403327e-37 -1.36092005e-39 1.05017376e-37 -1.04976425e-37 -7.05419673e-39 6.45634254e-37 -6.42261004e-37 -9.08533681e-39 4.06882681e-37 -4.08386891e-37 -5.04998259e-39 5.12864431e-37 -5.18806833e-37 -9.74989000e-39 7.53251062e-37 -7.45817723e-37 -1.48552211e-38 5.13658216e-37 -5.10440970e-37 -1.11655350e-38 7.35741109e-37 -7.38773429e-37 -9.67222583e-39 7.67620896e-37 -7.59790485e-37 -1.68355108e-38 5.30908806e-37 -5.26982390e-37 -1.424608