# vtk DataFile Version 2.0
Tornado8_1.vtk, Created by Freefem++ 
ASCII
DATASET UNSTRUCTURED_GRID
POINTS 198 float
-0.03535534 0.03535534 -0.12500000
-0.03535534 0.03535534 -0.04687500
-0.03535534 0.03535534 0.03125000
-0.03535534 0.03535534 0.10937500
-0.03535534 0.03535534 0.18750000
-0.03535534 0.03535534 0.26562500
-0.03535534 0.03535534 0.34375000
-0.03535534 0.03535534 0.42187500
-0.03535534 0.03535534 0.50000000
-0.10606602 0.10606602 -0.12500000
-0.10606602 0.10606602 -0.04687500
-0.10606602 0.10606602 0.03125000
-0.10606602 0.10606602 0.10937500
-0.10606602 0.10606602 0.18750000
-0.10606602 0.10606602 0.26562500
-0.10606602 0.10606602 0.34375000
-0.10606602 0.10606602 0.42187500
-0.10606602 0.10606602 0.50000000
0.00000000 0.05000000 -0.12500000
0.00000000 0.05000000 -0.04687500
0.00000000 0.05000000 0.03125000
0.00000000 0.05000000 0.10937500
0.00000000 0.05000000 0.18750000
0.00000000 0.05000000 0.26562500
0.00000000 0.05000000 0.34375000
0.00000000 0.05000000 0.42187500
0.00000000 0.05000000 0.50000000
0.00000000 0.15000001 -0.12500000
0.00000000 0.15000001 -0.04687500
0.00000000 0.15000001 0.03125000
0.00000000 0.15000001 0.10937500
0.00000000 0.15000001 0.18750000
0.00000000 0.15000001 0.26562500
0.00000000 0.15000001 0.34375000
0.00000000 0.15000001 0.42187500
0.00000000 0.15000001 0.50000000
-0.15000001 0.00000000 -0.12500000
-0.15000001 0.00000000 -0.04687500
-0.15000001 0.00000000 0.03125000
-0.15000001 0.00000000 0.10937500
-0.15000001 0.00000000 0.18750000
-0.15000001 0.00000000 0.26562500
-0.15000001 0.00000000 0.34375000
-0.15000001 0.00000000 0.42187500
-0.15000001 0.00000000 0.50000000
-0.05000000 0.00000000 -0.12500000
-0.05000000 0.00000000 -0.04687500
-0.05000000 0.00000000 0.03125000
-0.05000000 0.00000000 0.10937500
-0.05000000 0.00000000 0.18750000
-0.05000000 0.00000000 0.26562500
-0.05000000 0.00000000 0.34375000
-0.05000000 0.00000000 0.42187500
-0.05000000 0.00000000 0.50000000
-0.01178511 0.01178511 -0.12500000
-0.01178511 0.01178511 -0.04687500
-0.01178511 0.01178511 0.03125000
-0.01178511 0.01178511 0.10937500
-0.01178511 0.01178511 0.18750000
-0.01178511 0.01178511 0.26562500
-0.01178511 0.01178511 0.34375000
-0.01178511 0.01178511 0.42187500
-0.01178511 0.01178511 0.50000000
0.03535534 0.03535534 -0.12500000
0.03535534 0.03535534 -0.04687500
0.03535534 0.03535534 0.03125000
0.03535534 0.03535534 0.10937500
0.03535534 0.03535534 0.18750000
0.03535534 0.03535534 0.26562500
0.03535534 0.03535534 0.34375000
0.03535534 0.03535534 0.42187500
0.03535534 0.03535534 0.50000000
-0.50000000 0.00000000 -0.12500000
-0.50000000 0.00000000 -0.04687500
-0.50000000 0.00000000 0.03125000
-0.50000000 0.00000000 0.10937500
-0.50000000 0.00000000 0.18750000
-0.50000000 0.00000000 0.26562500
-0.50000000 0.00000000 0.34375000
-0.50000000 0.00000000 0.42187500
-0.50000000 0.00000000 0.50000000
0.00000000 0.50000000 -0.12500000
0.00000000 0.50000000 -0.04687500
0.00000000 0.50000000 0.03125000
0.00000000 0.50000000 0.10937500
0.00000000 0.50000000 0.18750000
0.00000000 0.50000000 0.26562500
0.00000000 0.50000000 0.34375000
0.00000000 0.50000000 0.42187500
0.00000000 0.50000000 0.50000000
0.10606602 0.10606602 -0.12500000
0.10606602 0.10606602 -0.04687500
0.10606602 0.10606602 0.03125000
0.10606602 0.10606602 0.10937500
0.10606602 0.10606602 0.18750000
0.10606602 0.10606602 0.26562500
0.10606602 0.10606602 0.34375000
0.10606602 0.10606602 0.42187500
0.10606602 0.10606602 0.50000000
-0.10606602 -0.10606602 -0.12500000
-0.10606602 -0.10606602 -0.04687500
-0.10606602 -0.10606602 0.03125000
-0.10606602 -0.10606602 0.10937500
-0.10606602 -0.10606602 0.18750000
-0.10606602 -0.10606602 0.26562500
-0.10606602 -0.10606602 0.34375000
-0.10606602 -0.10606602 0.42187500
-0.10606602 -0.10606602 0.50000000
-0.03535534 -0.03535534 -0.12500000
-0.03535534 -0.03535534 -0.04687500
-0.03535534 -0.03535534 0.03125000
-0.03535534 -0.03535534 0.10937500
-0.03535534 -0.03535534 0.18750000
-0.03535534 -0.03535534 0.26562500
-0.03535534 -0.03535534 0.34375000
-0.03535534 -0.03535534 0.42187500
-0.03535534 -0.03535534 0.50000000
0.01178511 -0.01178511 -0.12500000
0.01178511 -0.01178511 -0.04687500
0.01178511 -0.01178511 0.03125000
0.01178511 -0.01178511 0.10937500
0.01178511 -0.01178511 0.18750000
0.01178511 -0.01178511 0.26562500
0.01178511 -0.01178511 0.34375000
0.01178511 -0.01178511 0.42187500
0.01178511 -0.01178511 0.50000000
0.05000000 0.00000000 -0.12500000
0.05000000 0.00000000 -0.04687500
0.05000000 0.00000000 0.03125000
0.05000000 0.00000000 0.10937500
0.05000000 0.00000000 0.18750000
0.05000000 0.00000000 0.26562500
0.05000000 0.00000000 0.34375000
0.05000000 0.00000000 0.42187500
0.05000000 0.00000000 0.50000000
-0.00000000 -0.50000000 -0.12500000
-0.00000000 -0.50000000 -0.04687500
-0.00000000 -0.50000000 0.03125000
-0.00000000 -0.50000000 0.10937500
-0.00000000 -0.50000000 0.18750000
-0.00000000 -0.50000000 0.26562500
-0.00000000 -0.50000000 0.34375000
-0.00000000 -0.50000000 0.42187500
-0.00000000 -0.50000000 0.50000000
0.50000000 0.00000000 -0.12500000
0.50000000 0.00000000 -0.04687500
0.50000000 0.00000000 0.03125000
0.50000000 0.00000000 0.10937500
0.50000000 0.00000000 0.18750000
0.50000000 0.00000000 0.26562500
0.50000000 0.00000000 0.34375000
0.50000000 0.00000000 0.42187500
0.50000000 0.00000000 0.50000000
-0.00000000 -0.15000001 -0.12500000
-0.00000000 -0.15000001 -0.04687500
-0.00000000 -0.15000001 0.03125000
-0.00000000 -0.15000001 0.10937500
-0.00000000 -0.15000001 0.18750000
-0.00000000 -0.15000001 0.26562500
-0.00000000 -0.15000001 0.34375000
-0.00000000 -0.15000001 0.42187500
-0.00000000 -0.15000001 0.50000000
0.15000001 0.00000000 -0.12500000
0.15000001 0.00000000 -0.04687500
0.15000001 0.00000000 0.03125000
0.15000001 0.00000000 0.10937500
0.15000001 0.00000000 0.18750000
0.15000001 0.00000000 0.26562500
0.15000001 0.00000000 0.34375000
0.15000001 0.00000000 0.42187500
0.15000001 0.00000000 0.50000000
0.03535534 -0.03535534 -0.12500000
0.03535534 -0.03535534 -0.04687500
0.03535534 -0.03535534 0.03125000
0.03535534 -0.03535534 0.10937500
0.03535534 -0.03535534 0.18750000
0.03535534 -0.03535534 0.26562500
0.03535534 -0.03535534 0.34375000
0.03535534 -0.03535534 0.42187500
0.03535534 -0.03535534 0.50000000
-0.00000000 -0.05000000 -0.12500000
-0.00000000 -0.05000000 -0.04687500
-0.00000000 -0.05000000 0.03125000
-0.00000000 -0.05000000 0.10937500
-0.00000000 -0.05000000 0.18750000
-0.00000000 -0.05000000 0.26562500
-0.00000000 -0.05000000 0.34375000
-0.00000000 -0.05000000 0.42187500
-0.00000000 -0.05000000 0.50000000
0.10606602 -0.10606602 -0.12500000
0.10606602 -0.10606602 -0.04687500
0.10606602 -0.10606602 0.03125000
0.10606602 -0.10606602 0.10937500
0.10606602 -0.10606602 0.18750000
0.10606602 -0.10606602 0.26562500
0.10606602 -0.10606602 0.34375000
0.10606602 -0.10606602 0.42187500
0.10606602 -0.10606602 0.50000000

CELLS 1308 6144
4 133 134 70 124
4 70 125 124 134
4 70 125 134 71
4 132 133 69 123
4 69 124 123 133
4 69 124 133 70
4 131 132 68 122
4 68 123 122 132
4 68 123 132 69
4 130 131 67 121
4 67 122 121 131
4 67 122 131 68
4 129 130 66 120
4 66 121 120 130
4 66 121 130 67
4 128 129 65 119
4 65 120 119 129
4 65 120 129 66
4 127 128 64 118
4 64 119 118 128
4 64 119 128 65
4 126 127 63 117
4 63 118 117 127
4 63 118 127 64
4 61 62 25 7
4 25 26 7 62
4 7 8 62 26
4 60 61 24 6
4 24 25 6 61
4 6 7 61 25
4 59 60 23 5
4 23 24 5 60
4 5 6 60 24
4 58 59 22 4
4 22 23 4 59
4 4 5 59 23
4 57 58 21 3
4 21 22 3 58
4 3 4 58 22
4 56 57 20 2
4 20 21 2 57
4 2 3 57 21
4 55 56 19 1
4 19 20 1 56
4 1 2 56 20
4 54 55 18 0
4 18 19 0 55
4 0 1 55 19
4 61 62 7 52
4 7 53 52 62
4 7 53 62 8
4 60 61 6 51
4 6 52 51 61
4 6 52 61 7
4 59 60 5 50
4 5 51 50 60
4 5 51 60 6
4 58 59 4 49
4 4 50 49 59
4 4 50 59 5
4 57 58 3 48
4 3 49 48 58
4 3 49 58 4
4 56 57 2 47
4 2 48 47 57
4 2 48 57 3
4 55 56 1 46
4 1 47 46 56
4 1 47 56 2
4 54 55 0 45
4 0 46 45 55
4 0 46 55 1
4 115 116 61 52
4 61 62 52 116
4 52 53 116 62
4 114 115 60 51
4 60 61 51 115
4 51 52 115 61
4 113 114 59 50
4 59 60 50 114
4 50 51 114 60
4 112 113 58 49
4 58 59 49 113
4 49 50 113 59
4 111 112 57 48
4 57 58 48 112
4 48 49 112 58
4 110 111 56 47
4 56 57 47 111
4 47 48 111 57
4 109 110 55 46
4 55 56 46 110
4 46 47 110 56
4 108 109 54 45
4 54 55 45 109
4 45 46 109 55
4 124 125 70 61
4 70 71 61 125
4 61 62 125 71
4 123 124 69 60
4 69 70 60 124
4 60 61 124 70
4 122 123 68 59
4 68 69 59 123
4 59 60 123 69
4 121 122 67 58
4 67 68 58 122
4 58 59 122 68
4 120 121 66 57
4 66 67 57 121
4 57 58 121 67
4 119 120 65 56
4 65 66 56 120
4 56 57 120 66
4 118 119 64 55
4 64 65 55 119
4 55 56 119 65
4 117 118 63 54
4 63 64 54 118
4 54 55 118 64
4 133 179 124 178
4 133 134 124 179
4 124 179 134 125
4 132 178 123 177
4 132 133 123 178
4 123 178 133 124
4 131 177 122 176
4 131 132 122 177
4 122 177 132 123
4 130 176 121 175
4 130 131 121 176
4 121 176 131 122
4 129 175 120 174
4 129 130 120 175
4 120 175 130 121
4 128 174 119 173
4 128 129 119 174
4 119 174 129 120
4 127 173 118 172
4 127 128 118 173
4 118 173 128 119
4 126 172 117 171
4 126 127 117 172
4 117 172 127 118
4 70 71 25 61
4 25 62 61 71
4 25 62 71 26
4 69 70 24 60
4 24 61 60 70
4 24 61 70 25
4 68 69 23 59
4 23 60 59 69
4 23 60 69 24
4 67 68 22 58
4 22 59 58 68
4 22 59 68 23
4 66 67 21 57
4 21 58 57 67
4 21 58 67 22
4 65 66 20 56
4 20 57 56 66
4 20 57 66 21
4 64 65 19 55
4 19 56 55 65
4 19 56 65 20
4 63 64 18 54
4 18 55 54 64
4 18 55 64 19
4 115 125 124 61
4 115 125 61 116
4 61 62 116 125
4 114 124 123 60
4 114 124 60 115
4 60 61 115 124
4 113 123 122 59
4 113 123 59 114
4 59 60 114 123
4 112 122 121 58
4 112 122 58 113
4 58 59 113 122
4 111 121 120 57
4 111 121 57 112
4 57 58 112 121
4 110 120 119 56
4 110 120 56 111
4 56 57 111 120
4 109 119 118 55
4 109 119 55 110
4 55 56 110 119
4 108 118 117 54
4 108 118 54 109
4 54 55 109 118
4 124 188 187 178
4 124 188 178 179
4 124 179 125 188
4 123 187 186 177
4 123 187 177 178
4 123 178 124 187
4 122 186 185 176
4 122 186 176 177
4 122 177 123 186
4 121 185 184 175
4 121 185 175 176
[...]
CELL_DATA 1308
Scalars  Label int1
LOOKUP_TABLE FreeFempp_table
0
0
0
0
0
0
0
0
0
0
0
0
0
0
0
0
0
0
0
0
0
0
0
0
0
0
0
0
0
0
0
0
0
0
0
0
0
0
0
0
0
0
0
0
0
0
0
0
0
0
0
0
0
0
0
0
0
0
0
0
0
0
0
0
0
0
0
0
0
0
0
0
0
0
0
0
0
0
0
0
0
0
0
0
0
0
0
0
0
0
0
0
0
0
0
0
0
0
0
0
0
0
0
0
0
0
0
0
0
0
0
0
0
0
0
0
0
0
0
0
0
0
0
0
0
0
0
0
0
0
0
0
0
0
0
0
0
0
0
0
0
0
0
0
0
0
0
0
0
0
0
0
0
0
0
0
0
0
0
0
0
0
0
0
0
0
0
0
0
0
0
0
0
0
0
0
0
0
0
0
0
0
0
0
0
0
0
0
0
0
0
0
0
0
0
0
0
0
0
0
0
0
0
0
0
0
0
0
0
0
0
0
0
0
0
0
0
0
0
0
0
0
0
0
0
0
0
0
0
0
0
0
0
0
0
0
0
0
0
0
1
1
1
1
1
1
1
1
1
1
1
1
1
1
1
1
1
1
1
1
1
1
1
1
1
1
1
1
1
1
1
1
1
1
1
1
1
1
1
1
1
1
1
1
1
1
1
1
1
1
1
1
1
1
1
1
1
1
1
1
1
1
1
1
1
1
1
1
1
1
1
1
1
1
1
1
1
1
1
1
1
1
1
1
1
1
1
1
1
1
1
1
1
1
1
1
1
1
1
1
1
1
1
1
1
1
1
1
1
1
1
1
1
1
1
1
1
1
1
1
1
1
1
1
1
1
1
1
1
1
1
1
1
1
1
1
1
1
1
1
1
1
1
1
1
1
1
1
1
1
1
1
1
1
1
1
1
1
1
1
1
1
1
1
1
1
1
1
1
1
1
1
1
1
1
1
1
1
1
1
1
1
1
1
1
1
1
1
1
1
1
1
1
1
1
1
1
1
1
1
1
1
1
1
1
1
1
1
1
1
1
1
1
1
1
1
1
1
1
1
1
1
1
1
1
1
1
1
1
1
1
1
1
1
1
1
1
1
1
1
1
1
1
1
1
1
1
1
1
1
1
1
1
1
1
1
1
1
1
1
1
1
1
1
1
1
1
1
1
1
1
1
1
1
1
1
1
1
1
1
1
1
1
1
1
1
1
1
1
1
1
1
1
1
1
1
1
1
1
1
1
1
1
1
1
1
1
1
1
1
1
1
1
1
1
1
1
1
1
1
1
1
1
1
1
1
1
1
1
1
1
1
1
1
1
1
1
1
1
1
1
1
1
1
1
1
1
1
1
1
1
1
1
1
1
1
1
1
1
1
1
1
1
1
1
1
1
1
1
1
1
1
1
1
1
1
1
1
1
1
1
1
1
1
2
2
2
2
2
2
2
2
2
2
2
2
2
2
2
2
2
2
2
2
2
2
2
2
2
2
2
2
2
2
2
2
2
2
2
2
2
2
2
2
2
2
2
2
2
2
2
2
2
2
2
2
2
2
2
2
2
2
2
2
2
2
2
2
2
2
2
2
2
2
2
2
2
2
2
2
2
2
2
2
2
2
2
2
2
2
2
2
2
2
2
2
2
2
2
2
2
2
2
2
2
2
2
2
2
2
2
2
2
2
2
2
2
2
2
2
2
2
2
2
2
2
2
2
2
2
2
2
2
2
2
2
2
2
2
2
2
2
2
2
2
2
2
2
2
2
2
2
2
2
2
2
2
2
2
2
2
2
2
2
2
2
2
2
2
2
2
2
2
2
2
2
2
2
2
2
2
2
2
2
2
2
2
2
2
2
2
2
2
2
2
2
2
2
2
2
2
2
2
2
2
2
2
2
2
2
2
2
2
2
2
2
2
2
2
2
2
2
2
2
2
2
2
2
2
2
2
2
2
2
2
2
2
2
2
2
2
2
2
2
2
2
2
2
2
2
2
2
2
2
2
2
2
2
2
2
2
2
2
2
2
2
2
2
2
2
2
2
2
2
2
2
2
2
2
2
2
2
2
2
2
2
2
2
2
2
2
2
1
1
1
1
1
1
1
1
1
1
1
1
1
1
1
1
1
1
1
1
1
1
1
1
1
1
2
2
2
2
2
2
2
2
2
2
2
2
1
1
1
1
1
1
1
1
1
1
1
1
1
1
1
1
1
1
1
1
1
1
1
1
1
1
2
2
2
2
2
2
2
2
2
2
2
2
1
1
1
1
1
1
1
1
1
1
1
1
1
1
1
1
1
1
1
1
1
1
1
1
1
1
1
1
1
1
1
1
1
1
1
1
1
1
1
1
1
1
1
1
1
1
1
1
1
1
1
1
1
1
1
1
1
1
1
1
1
1
1
1
1
1
1
1
1
1
1
1
1
1
1
1
1
1
1
1
1
1
1
1
1
1
1
1
1
1
1
1
1
1
1
1
1
1
1
1
1
1
1
1
1
1
1
1
1
1
1
1
1
1
1
1
1
1
1
1
1
1
1
1
1
1
1
1
1
1
1
1
1
1
1
1
1
1
1
1
1
1
1
1
1
1
1
1
1
1
1
1
1
1
1
1
1
1
1
1
1
1
1
1
1
1
1
1
1
1
1
1
1
1
1
1
1
1
1
1
1
1
1
1
1
1
1
1
1
1
1
1
1
1
1
1
1
1
1
1
1
1
1
1
1
1
1
1
1
1
1
1
1
1
1
1
1
1
1
1
1
1
1
1
1
1
1
1
1
1
1
1
1
1
1
1
1
1
1
1
1
1
1
1
1
1
1
1
1
1
1
1
1
1
1
1
1
1
1
1
1
1
1
1
1
1
1
1
1
1
1
1
1
1
1
1
1
1
1
1
1
1
1
1
1
1
1
1
1
1
1
1
1
1
1
1
1
1
1
1
1
1
1
1
1
1
1
1
1
1
1
1
1
1
1
1
1
1
1
1

LOOKUP_TABLE FreeFempp_table 3
1.00000000 0.00000000 0.00000000 1.00000000
1.00000000 1.00000000 0.00000000 1.00000000
1.00000000 0.00000000 1.00000000 1.00000000

FIELD FieldData 2
NavSto 3 1308 float
-1.81405233e-06 -9.53077106e-04 9.59865632e-04 -1.81405233e-06 -9.53077106e-04 9.59865632e-04 -1.98910214e-37 -7.17344394e-35 7.78179614e-35 -3.66334189e-06 -1.10131386e-03 1.11238915e-03 -5.47739410e-06 -2.05439096e-03 2.07225466e-03 -1.81405233e-06 -9.53077106e-04 9.59865632e-04 -4.53098119e-06 -1.12529669e-03 1.13843929e-03 -8.19432262e-06 -2.22661067e-03 2.25082831e-03 -3.66334189e-06 -1.10131386e-03 1.11238915e-03 -4.74164608e-06 -1.12802617e-03 1.14158890e-03 -9.27262681e-06 -2.25332286e-03 2.28002830e-03 -4.53098119e-06 -1.12529669e-03 1.13843929e-03 -4.46194736e-06 -1.12140272e-03 1.13393296e-03 -9.20359344e-06 -2.24942877e-03 2.27552187e-03 -4.74164608e-06 -1.12802617e-03 1.14158890e-03 -3.50012692e-06 -1.08067878e-03 1.09007745e-03 -7.96207405e-06 -2.20208149e-03 2.22401042e-03 -4.46194736e-06 -1.12140272e-03 1.13393296e-03 -2.73298451e-06 -8.69114010e-04 8.74923193e-04 -6.23311143e-06 -1.94979284e-03 1.96500076e-03 -3.50012692e-06 -1.08067878e-03 1.09007745e-03 -2.50384261e-36 -7.33579360e-35 7.76268861e-35 -2.73298451e-06 -8.69114010e-04 8.74923193e-04 -2.73298451e-06 -8.69114010e-04 8.74923193e-04 -2.45039087e-06 -8.69065523e-04 8.74734600e-04 2.36881266e-38 -1.37935228e-34 1.38573301e-34 -9.72870629e-38 -7.37734457e-35 7.51787756e-35 -5.43700844e-06 -1.94996840e-03 1.96460728e-03 -2.45039087e-06 -8.69065523e-04 8.74734600e-04 -2.45039087e-06 -8.69065523e-04 8.74734600e-04 -7.03825435e-06 -2.20247102e-03 2.22376082e-03 -2.98661780e-06 -1.08090288e-03 1.08987279e-03 -2.98661780e-06 -1.08090288e-03 1.08987279e-03 -8.43061389e-06 -2.24975566e-03 2.27547670e-03 -4.05163655e-06 -1.12156826e-03 1.13388791e-03 -4.05163655e-06 -1.12156826e-03 1.13388791e-03 -8.56941369e-06 -2.25366792e-03 2.28006090e-03 -4.37897779e-06 -1.12818740e-03 1.14158867e-03 -4.37897779e-06 -1.12818740e-03 1.14158867e-03 -7.57044700e-06 -2.22699367e-03 2.25100061e-03 -4.19043590e-06 -1.12548040e-03 1.13847223e-03 -4.19043590e-06 -1.12548040e-03 1.13847223e-03 -5.04410491e-06 -2.05477932e-03 2.07270496e-03 -3.38001132e-06 -1.10151316e-03 1.11252838e-03 -3.38001132e-06 -1.10151316e-03 1.11252838e-03 -1.66409359e-06 -9.53266164e-04 9.60176578e-04 -1.66409359e-06 -9.53266164e-04 9.60176578e-04 -1.66409359e-06 -9.53266164e-04 9.60176578e-04 -2.45039087e-06 -8.69065523e-04 8.74734600e-04 -1.22171675e-36 -1.36247142e-34 1.40320781e-34 -4.70431006e-37 -7.34849445e-35 7.62302289e-35 -5.43700844e-06 -1.94996840e-03 1.96460728e-03 -2.45039087e-06 -8.69065523e-04 8.74734600e-04 -2.45039087e-06 -8.69065523e-04 8.74734600e-04 -7.03825435e-06 -2.20247102e-03 2.22376082e-03 -2.98661780e-06 -1.08090288e-03 1.08987279e-03 -2.98661780e-06 -1.08090288e-03 1.08987279e-03 -8.43061389e-06 -2.24975566e-03 2.27547670e-03 -4.05163655e-06 -1.12156826e-03 1.13388791e-03 -4.05163655e-06 -1.12156826e-03 1.13388791e-03 -8.56941369e-06 -2.25366792e-03 2.28006090e-03 -4.37897779e-06 -1.12818740e-03 1.14158867e-03 -4.37897779e-06 -1.12818740e-03 1.14158867e-03 -7.57044700e-06 -2.22699367e-03 2.25100061e-03 -4.19043590e-06 -1.12548040e-03 1.13847223e-03 -4.19043590e-06 -1.12548040e-03 1.13847223e-03 -5.04410491e-06 -2.05477932e-03 2.07270496e-03 -3.38001132e-06 -1.10151316e-03 1.11252838e-03 -3.38001132e-06 -1.10151316e-03 1.11252838e-03 -1.66409359e-06 -9.53266164e-04 9.60176578e-04 -1.66409359e-06 -9.53266164e-04 9.60176578e-04 -1.66409359e-06 -9.53266164e-04 9.60176578e-04 -2.45039087e-06 -8.69065523e-04 8.74734600e-04 -2.45039087e-06 -8.69065523e-04 8.74734600e-04 -2.49086797e-36 -7.28758054e-35 7.76206757e-35 -2.98661780e-06 -1.08090288e-03 1.08987279e-03 -5.43700844e-06 -1.94996840e-03 1.96460728e-03 -2.45039087e-06 -8.69065523e-04 8.74734600e-04 -4.05163655e-06 -1.12156826e-03 1.13388791e-03 -7.03825435e-06 -2.20247102e-03 2.22376082e-03 -2.98661780e-06 -1.08090288e-03 1.08987279e-03 -4.37897779e-06 -1.12818740e-03 1.14158867e-03 -8.43061389e-06 -2.24975566e-03 2.27547670e-03 -4.05163655e-06 -1.12156826e-03 1.13388791e-03 -4.19043590e-06 -1.12548040e-03 1.13847223e-03 -8.56941369e-06 -2.25366792e-03 2.28006090e-03 -4.37897779e-06 -1.12818740e-03 1.14158867e-03 -3.38001132e-06 -1.10151316e-03 1.11252838e-03 -7.57044700e-06 -2.22699367e-03 2.25100061e-03 -4.19043590e-06 -1.12548040e-03 1.13847223e-03 -1.66409359e-06 -9.53266164e-04 9.60176578e-04 -5.04410491e-06 -2.05477932e-03 2.07270496e-03 -3.38001132e-06 -1.10151316e-03 1.11252838e-03 1.59407162e-37 -7.20592444e-35 7.78228344e-35 -1.66409359e-06 -9.53266164e-04 9.60176578e-04 -1.66409359e-06 -9.53266164e-04 9.60176578e-04 -4.26444331e-06 -1.82214263e-03 1.83460023e-03 -2.45039087e-06 -8.69065523e-04 8.74734600e-04 -2.45039087e-06 -8.69065523e-04 8.74734600e-04 -8.46401235e-06 -3.13529395e-03 3.16212745e-03 -4.80067001e-06 -2.03397986e-03 2.04973831e-03 -7.25106111e-06 -2.90304539e-03 2.92447302e-03 -1.22459596e-05 -3.34817893e-03 3.38471634e-03 -7.71497798e-06 -2.22288212e-03 2.24627717e-03 -1.07015958e-05 -3.30378511e-03 3.33614973e-03 -1.36516046e-05 -3.38151027e-03 3.42161674e-03 -8.90995852e-06 -2.25348421e-03 2.28002784e-03 -1.29615955e-05 -3.37505247e-03 3.41391587e-03 -1.33940293e-05 -3.37490928e-03 3.41399410e-03 -8.93208198e-06 -2.25350657e-03 2.28006113e-03 -1.33110598e-05 -3.38169397e-03 3.42164980e-03 -1.13420856e-05 -3.30359465e-03 3.33653879e-03 -7.84195890e-06 -2.22291588e-03 2.24646134e-03 -1.20323948e-05 -3.34839616e-03 3.38493357e-03 -7.89720525e-06 -2.90305889e-03 2.92517710e-03 -5.16422051e-06 -2.03394494e-03 2.05025403e-03 -8.54423160e-06 -3.13545810e-03 3.16278241e-03 -2.73298451e-06 -8.69114010e-04 8.74923193e-04 -2.73298451e-06 -8.69114010e-04 8.74923193e-04 -4.39707810e-06 -1.82238023e-03 1.83509977e-03 -1.81405233e-06 -9.53077106e-04 9.59865632e-04 -1.81405233e-06 -9.53077106e-04 9.59865632e-04 -1.81405233e-06 -9.53077106e-04 9.59865632e-04 -3.66334189e-06 -1.10131386e-03 1.11238915e-03 -3.66334189e-06 -1.10131386e-03 1.11238915e-03 -5.47739410e-06 -2.05439096e-03 2.07225466e-03 -4.53098119e-06 -1.12529669e-03 1.13843929e-03 -4.53098119e-06 -1.12529669e-03 1.13843929e-03 -8.19432262e-06 -2.22661067e-03 2.25082831e-03 -4.74164608e-06 -1.12802617e-03 1.14158890e-03 -4.74164608e-06 -1.12802617e-03 1.14158890e-03 -9.27262681e-06 -2.25332286e-03 2.28002830e-03 -4.46194736e-06 -1.12140272e-03 1.13393296e-03 -4.46194736e-06 -1.12140272e-03 1.13393296e-03 -9.20359344e-06 -2.24942877e-03 2.27552187e-03 -3.50012692e-06 -1.08067878e-03 1.09007745e-03 -3.50012692e-06 -1.08067878e-03 1.09007745e-03 -7.96207405e-06 -2.20208149e-03 2.22401042e-03 -2.73298451e-06 -8.69114010e-04 8.74923193e-04 -2.73298451e-06 -8.69114010e-04 8.74923193e-04 -6.23311143e-06 -1.94979284e-03 1.96500076e-03 -4.29679991e-37 -8.76645633e-35 9.05253710e-35 -1.30804122e-36 -1.50737234e-34 1.54447916e-34 -2.73298451e-06 -8.69114010e-04 8.74923193e-04 -2.45039087e-06 -8.69065523e-04 8.74734600e-04 -2.45039087e-06 -8.69065523e-04 8.74734600e-04 -1.86468040e-37 -7.42714754e-35 7.49642192e-35 -2.98661780e-06 -1.08090288e-03 1.08987279e-03 -5.43700844e-06 -1.94996840e-03 1.96460728e-03 -2.45039087e-06 -8.69065523e-04 8.74734600e-04 -4.05163655e-06 -1.12156826e-03 1.13388791e-03 -7.03825435e-06 -2.20247102e-03 2.22376082e-03 -2.98661780e-06 -1.08090288e-03 1.08987279e-03 -4.37897779e-06 -1.12818740e-03 1.14158867e-03 -8.43061389e-06 -2.24975566e-03 2.27547670e-03 -4.05163655e-06 -1.12156826e-03 1.13388791e-03 -4.19043590e-06 -1.12548040e-03 1.13847223e-03 -8.56941369e-06 -2.25366792e-03 2.28006090e-03 -4.37897779e-06 -1.12818740e-03 1.14158867e-03 -3.38001132e-06 -1.10151316e-03 1.11252838e-03 -7.57044700e-06 -2.22699367e-03 2.25100061e-03 -4.19043590e-06 -1.12548040e-03 1.13847223e-03 -1.66409359e-06 -9.53266164e-04 9.60176578e-04 -5.04410491e-06 -2.05477932e-03 2.07270496e-03 -3.38001132e-06 -1.10151316e-03 1.11252838e-03 -3.81113471e-36 -7.53988939e-35 8.07593490e-35 -1.66409359e-06 -9.53266164e-04 9.60176578e-04 -1.66409359e-06 -9.53266164e-04 9.60176578e-04 -4.26444331e-06 -1.82214263e-03 1.83460023e-03 -2.45039087e-06 -8.69065523e-04 8.74734600e-04 -2.45039087e-06 -8.69065523e-04 8.74734600e-04 -8.46401235e-06 -3.13529395e-03 3.16212745e-03 -4.80067001e-06 -2.03397986e-03 2.04973831e-03 -7.25106111e-06 -2.90304539e-03 2.92447302e-03 -1.22459596e-05 -3.34817893e-03 3.38471634e-03 -7.71497798e-06 -2.22288212e-03 2.24627717e-03 -1.07015958e-05 -3.30378511e-03 3.33614973e-03 -1.36516046e-05 -3.38151027e-03 3.42161674e-03 -8.90995852e-06 -2.25348421e-03 2.28002784e-03 -1.29615955e-05 -3.37505247e-03 3.41391587e-03 -1.33940293e-05 -3.37490928e-03 3.41399410e-03 -8.93208198e-06 -2.25350657e-03 2.28006113e-03 -1.33110598e-05 -3.38169397e-03 3.42164980e-03 -1.13420856e-05 -3.30359465e-03 3.33653879e-03 -7.84195890e-06 -2.22291588e-03 2.24646134e-03 -1.20323948e-05 -3.34839616e-03 3.38493357e-03 -7.89720525e-06 -2.90305889e-03 2.92517710e-03 -5.16422051e-06 -2.03394494e-03 2.05025403e-03 -8.54423160e-06 -3.13545810e-03 3.16278241e-03 -2.73298451e-06 -8.69114010e-04 8.74923193e-04 -2.73298451e-06 -8.69114010e-04 8.74923193e-04 -4.39707810e-06 -1.82238023e-03 1.83509977e-03 -1.81405233e-06 -9.53077106e-04 9.59865632e-04 -1.81405233e-06 -9.53077106e-04 9.59865632e-04 -1.81405233e-06 -9.53077106e-04 9.59865632e-04 -3.66334189e-06 -1.10131386e-03 1.11238915e-03 -3.66334189e-06 -1.10131386e-03 1.11238915e-03 -5.47739410e-06 -2.05439096e-03 2.07225466e-03 -4.53098119e-06 -1.12529669e-03 1.13843929e-03 -4.53098119e-06 -1.12529669e-03 1.13843929e-03 -8.19432262e-06 -2.22661067e-03 2.25082831e-03 -4.74164608e-06 -1.12802617e-03 1.14158890e-03 -4.74164608e-06 -1.12802617e-03 1.14158890e-03 -9.27262681e-06 -2.25332286e-03 2.28002830e-03 -4.46194736e-06 -1.12140272e-03 1.13393296e-03 -4.46194736e-06 -1.12140272e-03 1.13393296e-03 -9.20359344e-06 -2.24942877e-03 2.27552187e-03 -3.50012692e-06 -1.08067878e-03 1.09007745e-03 -3.50012692e-06 -1.08067878e-03 1.09007745e-03 -7.96207405e-06 -2.20208149e-03 2.22401042e-03 -2.73298451e-06 -8.69114010e-04 8.74923193e-04 -2.73298451e-06 -8.69114010e-04 8.74923193e-04 -6.23311143e-06 -1.94979284e-03 1.96500076e-03 -1.03204791e-37 -8.65784822e-35 8.71918917e-35 2.12352223e-38 -1.37761785e-34 1.39238041e-34 -2.73298451e-06 -8.69114010e-04 8.74923193e-04 -1.81405233e-06 -9.53077106e-04 9.59865632e-04 -1.81405233e-06 -9.53077106e-04 9.59865632e-04 -3.65062635e-36 -9.07653601e-35 9.62794388e-35 -3.66334189e-06 -1.10131386e-03 1.11238915e-03 -5.47739410e-06 -2.05439096e-03 2.07225466e-03 -1.81405233e-06 -9.53077106e-04 9.59865632e-04 -4.53098119e-06 -1.12529669e-03 1.13843929e-03 -8.19432262e-06 -2.22661067e-03 2.25082831e-03 -3.66334189e-06 -1.10131386e-03 1.11238915e-03 -4.74164608e-06 -1.12802617e-03 1.14158890e-03 -9.27262681e-06 -2.25332286e-03 2.28002830e-03 -4.53098119e-06 -1.12529669e-03 1.13843929e-03 -4.46194736e-06 -1.12140272e-03 1.13393296e-03 -9.20359344e-06 -2.24942877e-03 2.27552187e-03 -4.74164608e-06 -1.12802617e-03 1.14158890e-03 -3.50012692e-06 -1.08067878e-03 1.09007745e-03 -7.96207405e-06 -2.20208149e-03 2.22401042e-03 -4.46194736e-06 -1.12140272e-03 1.13393296e-03 -2.73298451e-06 -8.69114010e-04 8.74923193e-04 -6.23311143e-06 -1.94979284e-03 1.96500076e-03 -3.50012692e-06 -1.08067878e-03 1.09007745e-03 -8.64026508e-38 -6.01844900e-35 6.11849746e-35 -2.73298451e-06 -8.69114010e-04 8.74923193e-04 -2.73298451e-06 -8.69114010e-04 8.74923193e-04 9.97543795e-37 -4.27045934e-35 4.40389660e-35 1.51679541e-36 -2.01723354e-35 2.24036036e-35 -2.66261999e-37 2.28251386e-35 -2.25220284e-35 -9.67007932e-38 -5.29651811e-35 5.44561419e-35 1.13921305e-36 -9.62131622e-35 9.87601451e-35 -7.09027472e-37 -4.32106328e-35 4.35614100e-35 -7.96000396e-37 -5.46592418e-35 5.64667882e-35 3.28129674e-38 -1.07987466e-34 1.11365106e-34 -2.07806347e-36 -5.36561915e-35 5.43774962e-35 -1.15670242e-36 -5.50425746e-35 5.69543256e-35 -5.21961392e-37 -1.09975452e-34 1.13747664e-34 -2.72402090e-36 -5.54291389e-35 5.64213870e-35 -1.45653195e-36 -5.56086888e-35 5.73935863e-35 -8.91940598e-37 -1.10875520e-34 1.14626196e-34 -3.02695463e-36 -5.58622007e-35 5.69302073e-35 -1.94711000e-36 -5.78337710e-35 5.90691881e-35 -1.41664253e-36 -1.13607144e-34 1.16748664e-34 -3.22371469e-36 -5.64493337e-35 5.74309232e-35 -2.83664996e-36 -6.29084686e-35 6.38414426e-35 -2.48832510e-36 -1.20865684e-34 1.23134744e-34 -3.45911777e-36 -5.86278094e-35 5.92294525e-35 -1.36512846e-36 5.85502318e-37 2.19829210e-36 -1.98843849e-36 -6.23462861e-35 6.58635856e-35 -3.22341444e-36 -6.31855535e-35 6.54831685e-35 8.04488363e-37 -7.09678656e-35 7.43719664e-35 -9.78569003e-37 -2.79703916e-35 2.94463315e-35 -1.90374902e-38 -1.17561991e-36 3.73228748e-36 -6.60627879e-37 -1.33927251e-34 1.38374052e-34 -2.50886845e-36 -8.09247160e-35 8.31753113e-35 -1.51460410e-36 -1.31214201e-34 1.35621226e-34 -2.03229854e-36 -1.44022544e-34 1.49605235e-34 -4.14317491e-36 -8.96912751e-35 9.26176246e-35 -3.96165308e-36 -1.26714354e-34 1.32310177e-34 -2.62295343e-36 -1.45833390e-34 1.51849821e-34 -4.82501293e-36 -9.12870718e-35 9.45235383e-35 -4.96210396e-36 -1.26552264e-34 1.32809074e-34 -2.97788076e-36 -1.47022683e-34 1.52918109e-34 -5.11289461e-36 -9.20093637e-35 9.52221195e-35 -5.34363453e-36 -1.27047671e-34 1.33348389e-34 -3.43968308e-36 -1.51644155e-34 1.56596442e-34 -5.24675525e-36 -9.44863450e-35 9.72787008e-35 -5.56551267e-36 -1.29792863e-34 1.35533270e-34 -4.35023418e-36 -1.72618361e-34 1.75950026e-34 -5.32102685e-36 -1.10380492e-34 1.12044735e-34 -5.83205946e-36 -1.47623459e-34 1.51732248e-34 -2.61364342e-36 -3.62702915e-35 4.07063879e-35 -3.84861937e-36 -3.71095588e-35 4.03259679e-35 -5.32376398e-36 -8.85851567e-35 9.14995332e-35 -1.66779736e-36 -1.14762515e-34 1.14473864e-34 -7.08265928e-37 -8.79677467e-35 8.87598221e-35 -1.11752218e-37 -3.72337405e-35 3.58639969e-35 -3.66072072e-36 -9.86944368e-35 9.77259052e-35 -2.66645637e-36 -1.48983922e-34 1.50171825e-34 -1.03659218e-36 -1.75529707e-34 1.73950090e-34 -5.06495182e-36 -9.62132713e-35 9.52046133e-35 -4.88343035e-36 -1.33236350e-34 1.34897160e-34 -2.73425715e-36 -1.58218957e-34 1.55511623e-34 -5.58071324e-36 -9.59961779e-35 9.49270004e-35 -5.71780426e-36 -1.31261370e-34 1.33212530e-34 -3.70977594e-36 -1.55253657e-34 1.52595686e-34 -5.74945056e-36 -9.61318017e-35 9.48684610e-35 -5.98019047e-36 -1.31170109e-34 1.32994731e-34 -4.01520968e-36 -1.54664935e-34 1.51899619e-34 -5.71930807e-36 -9.64760930e-35 9.47939422e-35 -6.03806549e-36 -1.31782617e-34 1.33048512e-34 -4.08698881e-36 -1.53134875e-34 1.50079692e-34 -5.40226647e-36 -9.98792410e-35 9.75683614e-35 -5.91329908e-36 -1.37122220e-34 1.37255875e-34 -3.99347516e-36 -1.43132658e-34 1.39635309e-34 -3.33070341e-36 4.61686541e-35 -4.37534150e-35 -4.80584837e-36 -5.30694266e-36 7.42014881e-36 -3.91355783e-36 -7.88388966e-35 7.73942726e-35 -1.09786152e-36 -6.52234750e-35 6.19873872e-35 -4.20859507e-38 -6.55184850e-35 6.16977840e-35 -1.55081729e-38 -6.43235215e-35 6.12884387e-35 -2.10322120e-36 -6.29169232e-35 5.80137571e-35 -5.39020911e-37 -6.36673741e-35 5.79732003e-35 -4.66656289e-37 -1.25990667e-34 1.21463613e-34 -3.13016231e-36 -6.23969219e-35 5.69316710e-35 -1.39114114e-36 -6.36424867e-35 5.69120756e-35 -1.17675772e-36 -1.22441455e-34 1.15799487e-34 -3.54149529e-36 -6.24625728e-35 5.68202114e-35 -1.74379644e-36 -6.39114097e-35 5.68328043e-35 -1.77498625e-36 -1.21437302e-34 1.14322738e-34 -3.68381842e-36 -6.23317589e-35 5.66048112e-35 -1.87534020e-36 -6.38364548e-35 5.66242918e-35 -1.97599137e-36 -1.21131329e-34 1.13792835e-34 -3.67706421e-36 -6.07116028e-35 5.50582900e-35 -1.93018967e-36 -6.22180780e-35 5.50492097e-35 -2.02135703e-36 -1.19334832e-34 1.11816042e-34 -3.43438819e-36 -5.01321192e-35 4.50036893e-35 -1.90317748e-36 -5.16105960e-35 4.49555503e-35 -1.95123166e-36 -1.07368162e-34 9.98996514e-35 -2.46666932e-36 1.93138945e-35 -1.74648155e-35 -1.97393601e-36 1.75854184e-35 -1.88559281e-35 -1.94567991e-36 -2.90917776e-35 2.48295975e-35 1.10355541e-36 -6.53372362e-35 6.21493793e-35 1.13013318e-36 -6.41422784e-35 6.17400283e-35 1.17457465e-36 -2.93643018e-38 -2.04080696e-36 1.68739922e-36 -6.36831010e-35 5.79588108e-35 1.75976379e-36 -1.26006394e-34 1.21449229e-34 2.27419988e-36 -6.50579530e-35 6.24245931e-35 1.67016177e-36 -6.36477213e-35 5.69286576e-35 1.88454528e-36 -1.22446689e-34 1.15816063e-34 3.18450166e-36 -6.29378846e-35 5.80159555e-35 1.67705750e-36 -6.39135621e-35 5.68404554e-35 1.64586769e-36 -1.21439460e-34 1.14330394e-34 3.35199453e-36 -6.24043146e-35 5.69559098e-35 1.68642867e-36 -6.38455752e-35 5.66226445e-35 1.58577750e-36 -1.21140444e-34 1.13791194e-34 3.44112770e-36 -6.24738513e-35 5.68262266e-35 1.65675773e-36 -6.22440904e-35 5.50499043e-35 1.56559055e-36 -1.19360844e-34 1.11816731e-34 3.46489803e-36 -6.23668974e-35 5.66038642e-35 1.51844450e-36 -5.16517613e-35 4.49883442e-35 1.47039042e-36 -1.07409327e-34 9.99324482e-35 3.33150517e-36 -6.07787804e-35 5.50917755e-35 4.52716576e-37 1.76517997e-35 -1.73339112e-35 4.80972717e-37 -2.90253949e-35 2.63516130e-35 2.41388633e-36 -5.01068989e-35 4.65584987e-35 1.24404533e-36 -1.00716253e-34 9.99246766e-35 1.28848681e-36 -3.66033415e-35 3.61438340e-35 5.41441638e-37 -3.66528351e-35 3.62977158e-35 2.53591633e-36 -1.89851808e-34 1.87257295e-34 3.05035260e-36 -1.28903379e-34 1.28232670e-34