# vtk DataFile Version 2.0
Tornado8_7.vtk, Created by Freefem++ 
ASCII
DATASET UNSTRUCTURED_GRID
POINTS 198 float
-0.03535534 0.03535534 -0.12500000
-0.03535534 0.03535534 -0.04687500
-0.03535534 0.03535534 0.03125000
-0.03535534 0.03535534 0.10937500
-0.03535534 0.03535534 0.18750000
-0.03535534 0.03535534 0.26562500
-0.03535534 0.03535534 0.34375000
-0.03535534 0.03535534 0.42187500
-0.03535534 0.03535534 0.50000000
-0.10606602 0.10606602 -0.12500000
-0.10606602 0.10606602 -0.04687500
-0.10606602 0.10606602 0.03125000
-0.10606602 0.10606602 0.10937500
-0.10606602 0.10606602 0.18750000
-0.10606602 0.10606602 0.26562500
-0.10606602 0.10606602 0.34375000
-0.10606602 0.10606602 0.42187500
-0.10606602 0.10606602 0.50000000
0.00000000 0.05000000 -0.12500000
0.00000000 0.05000000 -0.04687500
0.00000000 0.05000000 0.03125000
0.00000000 0.05000000 0.10937500
0.00000000 0.05000000 0.18750000
0.00000000 0.05000000 0.26562500
0.00000000 0.05000000 0.34375000
0.00000000 0.05000000 0.42187500
0.00000000 0.05000000 0.50000000
0.00000000 0.15000001 -0.12500000
0.00000000 0.15000001 -0.04687500
0.00000000 0.15000001 0.03125000
0.00000000 0.15000001 0.10937500
0.00000000 0.15000001 0.18750000
0.00000000 0.15000001 0.26562500
0.00000000 0.15000001 0.34375000
0.00000000 0.15000001 0.42187500
0.00000000 0.15000001 0.50000000
-0.15000001 0.00000000 -0.12500000
-0.15000001 0.00000000 -0.04687500
-0.15000001 0.00000000 0.03125000
-0.15000001 0.00000000 0.10937500
-0.15000001 0.00000000 0.18750000
-0.15000001 0.00000000 0.26562500
-0.15000001 0.00000000 0.34375000
-0.15000001 0.00000000 0.42187500
-0.15000001 0.00000000 0.50000000
-0.05000000 0.00000000 -0.12500000
-0.05000000 0.00000000 -0.04687500
-0.05000000 0.00000000 0.03125000
-0.05000000 0.00000000 0.10937500
-0.05000000 0.00000000 0.18750000
-0.05000000 0.00000000 0.26562500
-0.05000000 0.00000000 0.34375000
-0.05000000 0.00000000 0.42187500
-0.05000000 0.00000000 0.50000000
-0.01178511 0.01178511 -0.12500000
-0.01178511 0.01178511 -0.04687500
-0.01178511 0.01178511 0.03125000
-0.01178511 0.01178511 0.10937500
-0.01178511 0.01178511 0.18750000
-0.01178511 0.01178511 0.26562500
-0.01178511 0.01178511 0.34375000
-0.01178511 0.01178511 0.42187500
-0.01178511 0.01178511 0.50000000
0.03535534 0.03535534 -0.12500000
0.03535534 0.03535534 -0.04687500
0.03535534 0.03535534 0.03125000
0.03535534 0.03535534 0.10937500
0.03535534 0.03535534 0.18750000
0.03535534 0.03535534 0.26562500
0.03535534 0.03535534 0.34375000
0.03535534 0.03535534 0.42187500
0.03535534 0.03535534 0.50000000
-0.50000000 0.00000000 -0.12500000
-0.50000000 0.00000000 -0.04687500
-0.50000000 0.00000000 0.03125000
-0.50000000 0.00000000 0.10937500
-0.50000000 0.00000000 0.18750000
-0.50000000 0.00000000 0.26562500
-0.50000000 0.00000000 0.34375000
-0.50000000 0.00000000 0.42187500
-0.50000000 0.00000000 0.50000000
0.00000000 0.50000000 -0.12500000
0.00000000 0.50000000 -0.04687500
0.00000000 0.50000000 0.03125000
0.00000000 0.50000000 0.10937500
0.00000000 0.50000000 0.18750000
0.00000000 0.50000000 0.26562500
0.00000000 0.50000000 0.34375000
0.00000000 0.50000000 0.42187500
0.00000000 0.50000000 0.50000000
0.10606602 0.10606602 -0.12500000
0.10606602 0.10606602 -0.04687500
0.10606602 0.10606602 0.03125000
0.10606602 0.10606602 0.10937500
0.10606602 0.10606602 0.18750000
0.10606602 0.10606602 0.26562500
0.10606602 0.10606602 0.34375000
0.10606602 0.10606602 0.42187500
0.10606602 0.10606602 0.50000000
-0.10606602 -0.10606602 -0.12500000
-0.10606602 -0.10606602 -0.04687500
-0.10606602 -0.10606602 0.03125000
-0.10606602 -0.10606602 0.10937500
-0.10606602 -0.10606602 0.18750000
-0.10606602 -0.10606602 0.26562500
-0.10606602 -0.10606602 0.34375000
-0.10606602 -0.10606602 0.42187500
-0.10606602 -0.10606602 0.50000000
-0.03535534 -0.03535534 -0.12500000
-0.03535534 -0.03535534 -0.04687500
-0.03535534 -0.03535534 0.03125000
-0.03535534 -0.03535534 0.10937500
-0.03535534 -0.03535534 0.18750000
-0.03535534 -0.03535534 0.26562500
-0.03535534 -0.03535534 0.34375000
-0.03535534 -0.03535534 0.42187500
-0.03535534 -0.03535534 0.50000000
0.01178511 -0.01178511 -0.12500000
0.01178511 -0.01178511 -0.04687500
0.01178511 -0.01178511 0.03125000
0.01178511 -0.01178511 0.10937500
0.01178511 -0.01178511 0.18750000
0.01178511 -0.01178511 0.26562500
0.01178511 -0.01178511 0.34375000
0.01178511 -0.01178511 0.42187500
0.01178511 -0.01178511 0.50000000
0.05000000 0.00000000 -0.12500000
0.05000000 0.00000000 -0.04687500
0.05000000 0.00000000 0.03125000
0.05000000 0.00000000 0.10937500
0.05000000 0.00000000 0.18750000
0.05000000 0.00000000 0.26562500
0.05000000 0.00000000 0.34375000
0.05000000 0.00000000 0.42187500
0.05000000 0.00000000 0.50000000
-0.00000000 -0.50000000 -0.12500000
-0.00000000 -0.50000000 -0.04687500
-0.00000000 -0.50000000 0.03125000
-0.00000000 -0.50000000 0.10937500
-0.00000000 -0.50000000 0.18750000
-0.00000000 -0.50000000 0.26562500
-0.00000000 -0.50000000 0.34375000
-0.00000000 -0.50000000 0.42187500
-0.00000000 -0.50000000 0.50000000
0.50000000 0.00000000 -0.12500000
0.50000000 0.00000000 -0.04687500
0.50000000 0.00000000 0.03125000
0.50000000 0.00000000 0.10937500
0.50000000 0.00000000 0.18750000
0.50000000 0.00000000 0.26562500
0.50000000 0.00000000 0.34375000
0.50000000 0.00000000 0.42187500
0.50000000 0.00000000 0.50000000
-0.00000000 -0.15000001 -0.12500000
-0.00000000 -0.15000001 -0.04687500
-0.00000000 -0.15000001 0.03125000
-0.00000000 -0.15000001 0.10937500
-0.00000000 -0.15000001 0.18750000
-0.00000000 -0.15000001 0.26562500
-0.00000000 -0.15000001 0.34375000
-0.00000000 -0.15000001 0.42187500
-0.00000000 -0.15000001 0.50000000
0.15000001 0.00000000 -0.12500000
0.15000001 0.00000000 -0.04687500
0.15000001 0.00000000 0.03125000
0.15000001 0.00000000 0.10937500
0.15000001 0.00000000 0.18750000
0.15000001 0.00000000 0.26562500
0.15000001 0.00000000 0.34375000
0.15000001 0.00000000 0.42187500
0.15000001 0.00000000 0.50000000
0.03535534 -0.03535534 -0.12500000
0.03535534 -0.03535534 -0.04687500
0.03535534 -0.03535534 0.03125000
0.03535534 -0.03535534 0.10937500
0.03535534 -0.03535534 0.18750000
0.03535534 -0.03535534 0.26562500
0.03535534 -0.03535534 0.34375000
0.03535534 -0.03535534 0.42187500
0.03535534 -0.03535534 0.50000000
-0.00000000 -0.05000000 -0.12500000
-0.00000000 -0.05000000 -0.04687500
-0.00000000 -0.05000000 0.03125000
-0.00000000 -0.05000000 0.10937500
-0.00000000 -0.05000000 0.18750000
-0.00000000 -0.05000000 0.26562500
-0.00000000 -0.05000000 0.34375000
-0.00000000 -0.05000000 0.42187500
-0.00000000 -0.05000000 0.50000000
0.10606602 -0.10606602 -0.12500000
0.10606602 -0.10606602 -0.04687500
0.10606602 -0.10606602 0.03125000
0.10606602 -0.10606602 0.10937500
0.10606602 -0.10606602 0.18750000
0.10606602 -0.10606602 0.26562500
0.10606602 -0.10606602 0.34375000
0.10606602 -0.10606602 0.42187500
0.10606602 -0.10606602 0.50000000

CELLS 1308 6144
4 133 134 70 124
4 70 125 124 134
4 70 125 134 71
4 132 133 69 123
4 69 124 123 133
4 69 124 133 70
4 131 132 68 122
4 68 123 122 132
4 68 123 132 69
4 130 131 67 121
4 67 122 121 131
4 67 122 131 68
4 129 130 66 120
4 66 121 120 130
4 66 121 130 67
4 128 129 65 119
4 65 120 119 129
4 65 120 129 66
4 127 128 64 118
4 64 119 118 128
4 64 119 128 65
4 126 127 63 117
4 63 118 117 127
4 63 118 127 64
4 61 62 25 7
4 25 26 7 62
4 7 8 62 26
4 60 61 24 6
4 24 25 6 61
4 6 7 61 25
4 59 60 23 5
4 23 24 5 60
4 5 6 60 24
4 58 59 22 4
4 22 23 4 59
4 4 5 59 23
4 57 58 21 3
4 21 22 3 58
4 3 4 58 22
4 56 57 20 2
4 20 21 2 57
4 2 3 57 21
4 55 56 19 1
4 19 20 1 56
4 1 2 56 20
4 54 55 18 0
4 18 19 0 55
4 0 1 55 19
4 61 62 7 52
4 7 53 52 62
4 7 53 62 8
4 60 61 6 51
4 6 52 51 61
4 6 52 61 7
4 59 60 5 50
4 5 51 50 60
4 5 51 60 6
4 58 59 4 49
4 4 50 49 59
4 4 50 59 5
4 57 58 3 48
4 3 49 48 58
4 3 49 58 4
4 56 57 2 47
4 2 48 47 57
4 2 48 57 3
4 55 56 1 46
4 1 47 46 56
4 1 47 56 2
4 54 55 0 45
4 0 46 45 55
4 0 46 55 1
4 115 116 61 52
4 61 62 52 116
4 52 53 116 62
4 114 115 60 51
4 60 61 51 115
4 51 52 115 61
4 113 114 59 50
4 59 60 50 114
4 50 51 114 60
4 112 113 58 49
4 58 59 49 113
4 49 50 113 59
4 111 112 57 48
4 57 58 48 112
4 48 49 112 58
4 110 111 56 47
4 56 57 47 111
4 47 48 111 57
4 109 110 55 46
4 55 56 46 110
4 46 47 110 56
4 108 109 54 45
4 54 55 45 109
4 45 46 109 55
4 124 125 70 61
4 70 71 61 125
4 61 62 125 71
4 123 124 69 60
4 69 70 60 124
4 60 61 124 70
4 122 123 68 59
4 68 69 59 123
4 59 60 123 69
4 121 122 67 58
4 67 68 58 122
4 58 59 122 68
4 120 121 66 57
4 66 67 57 121
4 57 58 121 67
4 119 120 65 56
4 65 66 56 120
4 56 57 120 66
4 118 119 64 55
4 64 65 55 119
4 55 56 119 65
4 117 118 63 54
4 63 64 54 118
4 54 55 118 64
4 133 179 124 178
4 133 134 124 179
4 124 179 134 125
4 132 178 123 177
4 132 133 123 178
4 123 178 133 124
4 131 177 122 176
4 131 132 122 177
4 122 177 132 123
4 130 176 121 175
4 130 131 121 176
4 121 176 131 122
4 129 175 120 174
4 129 130 120 175
4 120 175 130 121
4 128 174 119 173
4 128 129 119 174
4 119 174 129 120
4 127 173 118 172
4 127 128 118 173
4 118 173 128 119
4 126 172 117 171
4 126 127 117 172
4 117 172 127 118
4 70 71 25 61
4 25 62 61 71
4 25 62 71 26
4 69 70 24 60
4 24 61 60 70
4 24 61 70 25
4 68 69 23 59
4 23 60 59 69
4 23 60 69 24
4 67 68 22 58
4 22 59 58 68
4 22 59 68 23
4 66 67 21 57
4 21 58 57 67
4 21 58 67 22
4 65 66 20 56
4 20 57 56 66
4 20 57 66 21
4 64 65 19 55
4 19 56 55 65
4 19 56 65 20
4 63 64 18 54
4 18 55 54 64
4 18 55 64 19
4 115 125 124 61
4 115 125 61 116
4 61 62 116 125
4 114 124 123 60
4 114 124 60 115
4 60 61 115 124
4 113 123 122 59
4 113 123 59 114
4 59 60 114 123
4 112 122 121 58
4 112 122 58 113
4 58 59 113 122
4 111 121 120 57
4 111 121 57 112
4 57 58 112 121
4 110 120 119 56
4 110 120 56 111
4 56 57 111 120
4 109 119 118 55
4 109 119 55 110
4 55 56 110 119
4 108 118 117 54
4 108 118 54 109
4 54 55 109 118
4 124 188 187 178
4 124 188 178 179
4 124 179 125 188
4 123 187 186 177
4 123 187 177 178
4 123 178 124 187
4 122 186 185 176
4 122 186 176 177
4 122 177 123 186
4 121 185 184 175
4 121 185 175 176
[...]
CELL_DATA 1308
Scalars  Label int1
LOOKUP_TABLE FreeFempp_table
0
0
0
0
0
0
0
0
0
0
0
0
0
0
0
0
0
0
0
0
0
0
0
0
0
0
0
0
0
0
0
0
0
0
0
0
0
0
0
0
0
0
0
0
0
0
0
0
0
0
0
0
0
0
0
0
0
0
0
0
0
0
0
0
0
0
0
0
0
0
0
0
0
0
0
0
0
0
0
0
0
0
0
0
0
0
0
0
0
0
0
0
0
0
0
0
0
0
0
0
0
0
0
0
0
0
0
0
0
0
0
0
0
0
0
0
0
0
0
0
0
0
0
0
0
0
0
0
0
0
0
0
0
0
0
0
0
0
0
0
0
0
0
0
0
0
0
0
0
0
0
0
0
0
0
0
0
0
0
0
0
0
0
0
0
0
0
0
0
0
0
0
0
0
0
0
0
0
0
0
0
0
0
0
0
0
0
0
0
0
0
0
0
0
0
0
0
0
0
0
0
0
0
0
0
0
0
0
0
0
0
0
0
0
0
0
0
0
0
0
0
0
0
0
0
0
0
0
0
0
0
0
0
0
0
0
0
0
0
0
1
1
1
1
1
1
1
1
1
1
1
1
1
1
1
1
1
1
1
1
1
1
1
1
1
1
1
1
1
1
1
1
1
1
1
1
1
1
1
1
1
1
1
1
1
1
1
1
1
1
1
1
1
1
1
1
1
1
1
1
1
1
1
1
1
1
1
1
1
1
1
1
1
1
1
1
1
1
1
1
1
1
1
1
1
1
1
1
1
1
1
1
1
1
1
1
1
1
1
1
1
1
1
1
1
1
1
1
1
1
1
1
1
1
1
1
1
1
1
1
1
1
1
1
1
1
1
1
1
1
1
1
1
1
1
1
1
1
1
1
1
1
1
1
1
1
1
1
1
1
1
1
1
1
1
1
1
1
1
1
1
1
1
1
1
1
1
1
1
1
1
1
1
1
1
1
1
1
1
1
1
1
1
1
1
1
1
1
1
1
1
1
1
1
1
1
1
1
1
1
1
1
1
1
1
1
1
1
1
1
1
1
1
1
1
1
1
1
1
1
1
1
1
1
1
1
1
1
1
1
1
1
1
1
1
1
1
1
1
1
1
1
1
1
1
1
1
1
1
1
1
1
1
1
1
1
1
1
1
1
1
1
1
1
1
1
1
1
1
1
1
1
1
1
1
1
1
1
1
1
1
1
1
1
1
1
1
1
1
1
1
1
1
1
1
1
1
1
1
1
1
1
1
1
1
1
1
1
1
1
1
1
1
1
1
1
1
1
1
1
1
1
1
1
1
1
1
1
1
1
1
1
1
1
1
1
1
1
1
1
1
1
1
1
1
1
1
1
1
1
1
1
1
1
1
1
1
1
1
1
1
1
1
1
1
1
1
1
1
1
1
1
1
1
1
1
1
1
1
1
1
1
1
1
2
2
2
2
2
2
2
2
2
2
2
2
2
2
2
2
2
2
2
2
2
2
2
2
2
2
2
2
2
2
2
2
2
2
2
2
2
2
2
2
2
2
2
2
2
2
2
2
2
2
2
2
2
2
2
2
2
2
2
2
2
2
2
2
2
2
2
2
2
2
2
2
2
2
2
2
2
2
2
2
2
2
2
2
2
2
2
2
2
2
2
2
2
2
2
2
2
2
2
2
2
2
2
2
2
2
2
2
2
2
2
2
2
2
2
2
2
2
2
2
2
2
2
2
2
2
2
2
2
2
2
2
2
2
2
2
2
2
2
2
2
2
2
2
2
2
2
2
2
2
2
2
2
2
2
2
2
2
2
2
2
2
2
2
2
2
2
2
2
2
2
2
2
2
2
2
2
2
2
2
2
2
2
2
2
2
2
2
2
2
2
2
2
2
2
2
2
2
2
2
2
2
2
2
2
2
2
2
2
2
2
2
2
2
2
2
2
2
2
2
2
2
2
2
2
2
2
2
2
2
2
2
2
2
2
2
2
2
2
2
2
2
2
2
2
2
2
2
2
2
2
2
2
2
2
2
2
2
2
2
2
2
2
2
2
2
2
2
2
2
2
2
2
2
2
2
2
2
2
2
2
2
2
2
2
2
2
2
1
1
1
1
1
1
1
1
1
1
1
1
1
1
1
1
1
1
1
1
1
1
1
1
1
1
2
2
2
2
2
2
2
2
2
2
2
2
1
1
1
1
1
1
1
1
1
1
1
1
1
1
1
1
1
1
1
1
1
1
1
1
1
1
2
2
2
2
2
2
2
2
2
2
2
2
1
1
1
1
1
1
1
1
1
1
1
1
1
1
1
1
1
1
1
1
1
1
1
1
1
1
1
1
1
1
1
1
1
1
1
1
1
1
1
1
1
1
1
1
1
1
1
1
1
1
1
1
1
1
1
1
1
1
1
1
1
1
1
1
1
1
1
1
1
1
1
1
1
1
1
1
1
1
1
1
1
1
1
1
1
1
1
1
1
1
1
1
1
1
1
1
1
1
1
1
1
1
1
1
1
1
1
1
1
1
1
1
1
1
1
1
1
1
1
1
1
1
1
1
1
1
1
1
1
1
1
1
1
1
1
1
1
1
1
1
1
1
1
1
1
1
1
1
1
1
1
1
1
1
1
1
1
1
1
1
1
1
1
1
1
1
1
1
1
1
1
1
1
1
1
1
1
1
1
1
1
1
1
1
1
1
1
1
1
1
1
1
1
1
1
1
1
1
1
1
1
1
1
1
1
1
1
1
1
1
1
1
1
1
1
1
1
1
1
1
1
1
1
1
1
1
1
1
1
1
1
1
1
1
1
1
1
1
1
1
1
1
1
1
1
1
1
1
1
1
1
1
1
1
1
1
1
1
1
1
1
1
1
1
1
1
1
1
1
1
1
1
1
1
1
1
1
1
1
1
1
1
1
1
1
1
1
1
1
1
1
1
1
1
1
1
1
1
1
1
1
1
1
1
1
1
1
1
1
1
1
1
1
1
1
1
1
1
1
1

LOOKUP_TABLE FreeFempp_table 3
1.00000000 0.00000000 0.00000000 1.00000000
1.00000000 1.00000000 0.00000000 1.00000000
1.00000000 0.00000000 1.00000000 1.00000000

FIELD FieldData 2
NavSto 3 1308 float
1.09448969e-13 9.36968558e-12 -9.72438102e-12 1.09448969e-13 9.36968558e-12 -9.72438102e-12 7.00649232e-45 5.40901207e-43 -6.22176518e-43 1.94364422e-13 1.46926013e-11 -1.52878404e-11 3.03813398e-13 2.40622869e-11 -2.50122215e-11 1.09448969e-13 9.36968558e-12 -9.72438102e-12 2.45311312e-13 1.69544361e-11 -1.76875164e-11 4.39675748e-13 3.16470357e-11 -3.29753551e-11 1.94364422e-13 1.46926013e-11 -1.52878404e-11 2.58840340e-13 1.73921225e-11 -1.81562057e-11 5.04151679e-13 3.43465568e-11 -3.58437238e-11 2.45311312e-13 1.69544361e-11 -1.76875164e-11 2.34839654e-13 1.63619951e-11 -1.70489785e-11 4.93680021e-13 3.37541176e-11 -3.52051860e-11 2.58840340e-13 1.73921225e-11 -1.81562057e-11 1.75627660e-13 1.31526430e-11 -1.36591389e-11 4.10467314e-13 2.95146373e-11 -3.07081166e-11 2.34839654e-13 1.63619951e-11 -1.70489785e-11 9.78626902e-14 6.89079566e-12 -7.15154281e-12 2.73490350e-13 2.00434391e-11 -2.08106813e-11 1.75627660e-13 1.31526430e-11 -1.36591389e-11 3.36311631e-44 5.75933669e-43 -6.38992100e-43 9.78626902e-14 6.89079566e-12 -7.15154281e-12 9.78626902e-14 6.89079566e-12 -7.15154281e-12 8.96787188e-14 6.89174369e-12 -7.14412774e-12 9.80908925e-45 1.08880891e-42 -1.12944656e-42 7.00649232e-45 5.80137564e-43 -6.13768727e-43 2.49707779e-13 2.00529870e-11 -2.07942830e-11 8.96787188e-14 6.89174369e-12 -7.14412774e-12 8.96787188e-14 6.89174369e-12 -7.14412774e-12 3.80993387e-13 2.95328415e-11 -3.06961644e-11 1.60029081e-13 1.31612429e-11 -1.36501539e-11 1.60029081e-13 1.31612429e-11 -1.36501539e-11 4.70199454e-13 3.37720685e-11 -3.52049917e-11 2.20964319e-13 1.63715968e-11 -1.70460104e-11 2.20964319e-13 1.63715968e-11 -1.70460104e-11 4.89778628e-13 3.43615900e-11 -3.58544652e-11 2.49235121e-13 1.74004700e-11 -1.81589830e-11 2.49235121e-13 1.74004700e-11 -1.81589830e-11 4.35742805e-13 3.16583010e-11 -3.29967512e-11 2.40543506e-13 1.69611200e-11 -1.76954840e-11 2.40543506e-13 1.69611200e-11 -1.76954840e-11 3.08846834e-13 2.40698399e-11 -2.50402147e-11 1.95199271e-13 1.46971810e-11 -1.53012655e-11 1.95199271e-13 1.46971810e-11 -1.53012655e-11 1.13647562e-13 9.37265890e-12 -9.73894836e-12 1.13647562e-13 9.37265890e-12 -9.73894836e-12 1.13647562e-13 9.37265890e-12 -9.73894836e-12 8.96787188e-14 6.89174369e-12 -7.14412774e-12 2.52233724e-44 1.07339462e-42 -1.14906474e-42 1.12103877e-44 5.78736266e-43 -6.24979115e-43 2.49707779e-13 2.00529870e-11 -2.07942830e-11 8.96787188e-14 6.89174369e-12 -7.14412774e-12 8.96787188e-14 6.89174369e-12 -7.14412774e-12 3.80993387e-13 2.95328415e-11 -3.06961644e-11 1.60029081e-13 1.31612429e-11 -1.36501539e-11 1.60029081e-13 1.31612429e-11 -1.36501539e-11 4.70199454e-13 3.37720685e-11 -3.52049917e-11 2.20964319e-13 1.63715968e-11 -1.70460104e-11 2.20964319e-13 1.63715968e-11 -1.70460104e-11 4.89778628e-13 3.43615900e-11 -3.58544652e-11 2.49235121e-13 1.74004700e-11 -1.81589830e-11 2.49235121e-13 1.74004700e-11 -1.81589830e-11 4.35742805e-13 3.16583010e-11 -3.29967512e-11 2.40543506e-13 1.69611200e-11 -1.76954840e-11 2.40543506e-13 1.69611200e-11 -1.76954840e-11 3.08846834e-13 2.40698399e-11 -2.50402147e-11 1.95199271e-13 1.46971810e-11 -1.53012655e-11 1.95199271e-13 1.46971810e-11 -1.53012655e-11 1.13647562e-13 9.37265890e-12 -9.73894836e-12 1.13647562e-13 9.37265890e-12 -9.73894836e-12 1.13647562e-13 9.37265890e-12 -9.73894836e-12 8.96787188e-14 6.89174369e-12 -7.14412774e-12 8.96787188e-14 6.89174369e-12 -7.14412774e-12 3.36311631e-44 5.71729773e-43 -6.38992100e-43 1.60029081e-13 1.31612429e-11 -1.36501539e-11 2.49707779e-13 2.00529870e-11 -2.07942830e-11 8.96787188e-14 6.89174369e-12 -7.14412774e-12 2.20964319e-13 1.63715968e-11 -1.70460104e-11 3.80993387e-13 2.95328415e-11 -3.06961644e-11 1.60029081e-13 1.31612429e-11 -1.36501539e-11 2.49235121e-13 1.74004700e-11 -1.81589830e-11 4.70199454e-13 3.37720685e-11 -3.52049917e-11 2.20964319e-13 1.63715968e-11 -1.70460104e-11 2.40543506e-13 1.69611200e-11 -1.76954840e-11 4.89778628e-13 3.43615900e-11 -3.58544652e-11 2.49235121e-13 1.74004700e-11 -1.81589830e-11 1.95199271e-13 1.46971810e-11 -1.53012655e-11 4.35742805e-13 3.16583010e-11 -3.29967512e-11 2.40543506e-13 1.69611200e-11 -1.76954840e-11 1.13647562e-13 9.37265890e-12 -9.73894836e-12 3.08846834e-13 2.40698399e-11 -2.50402147e-11 1.95199271e-13 1.46971810e-11 -1.53012655e-11 4.20389539e-45 5.43703804e-43 -6.23577817e-43 1.13647562e-13 9.37265890e-12 -9.73894836e-12 1.13647562e-13 9.37265890e-12 -9.73894836e-12 1.99127688e-13 1.62614297e-11 -1.68685083e-11 8.96787188e-14 6.89174369e-12 -7.14412774e-12 8.96787188e-14 6.89174369e-12 -7.14412774e-12 4.63842452e-13 3.72235298e-11 -3.86623754e-11 2.69478043e-13 2.25309285e-11 -2.33745349e-11 3.59156769e-13 2.94226726e-11 -3.05186640e-11 6.60640054e-13 4.80186342e-11 -5.00213655e-11 4.15328741e-13 3.10641998e-11 -3.23338509e-11 5.75357795e-13 4.42254428e-11 -4.59840048e-11 7.53386828e-13 5.17470303e-11 -5.40027051e-11 4.94546461e-13 3.43549043e-11 -3.58464994e-11 7.15510767e-13 5.07265029e-11 -5.28925098e-11 7.34223554e-13 5.07152376e-11 -5.29006665e-11 4.99383846e-13 3.43532425e-11 -3.58516897e-11 7.48618994e-13 5.17537124e-11 -5.40106709e-11 6.05666613e-13 4.42118182e-11 -4.60093838e-11 4.30038925e-13 3.10591761e-11 -3.23502440e-11 6.70582459e-13 4.80202926e-11 -5.00457280e-11 3.87137913e-13 2.94160980e-11 -3.05496288e-11 2.89275223e-13 2.25253028e-11 -2.33980873e-11 4.84474494e-13 3.72224820e-11 -3.86993528e-11 9.78626902e-14 6.89079566e-12 -7.15154281e-12 9.78626902e-14 6.89079566e-12 -7.15154281e-12 2.11510253e-13 1.62634541e-11 -1.68904907e-11 1.09448969e-13 9.36968558e-12 -9.72438102e-12 1.09448969e-13 9.36968558e-12 -9.72438102e-12 1.09448969e-13 9.36968558e-12 -9.72438102e-12 1.94364422e-13 1.46926013e-11 -1.52878404e-11 1.94364422e-13 1.46926013e-11 -1.52878404e-11 3.03813398e-13 2.40622869e-11 -2.50122215e-11 2.45311312e-13 1.69544361e-11 -1.76875164e-11 2.45311312e-13 1.69544361e-11 -1.76875164e-11 4.39675748e-13 3.16470357e-11 -3.29753551e-11 2.58840340e-13 1.73921225e-11 -1.81562057e-11 2.58840340e-13 1.73921225e-11 -1.81562057e-11 5.04151679e-13 3.43465568e-11 -3.58437238e-11 2.34839654e-13 1.63619951e-11 -1.70489785e-11 2.34839654e-13 1.63619951e-11 -1.70489785e-11 4.93680021e-13 3.37541176e-11 -3.52051860e-11 1.75627660e-13 1.31526430e-11 -1.36591389e-11 1.75627660e-13 1.31526430e-11 -1.36591389e-11 4.10467314e-13 2.95146373e-11 -3.07081166e-11 9.78626902e-14 6.89079566e-12 -7.15154281e-12 9.78626902e-14 6.89079566e-12 -7.15154281e-12 2.73490350e-13 2.00434391e-11 -2.08106813e-11 1.26116862e-44 6.90840143e-43 -7.42688186e-43 2.80259693e-44 1.18830110e-42 -1.26537251e-42 9.78626902e-14 6.89079566e-12 -7.15154281e-12 8.96787188e-14 6.89174369e-12 -7.14412774e-12 8.96787188e-14 6.89174369e-12 -7.14412774e-12 5.60519386e-45 5.84341460e-43 -6.09564832e-43 1.60029081e-13 1.31612429e-11 -1.36501539e-11 2.49707779e-13 2.00529870e-11 -2.07942830e-11 8.96787188e-14 6.89174369e-12 -7.14412774e-12 2.20964319e-13 1.63715968e-11 -1.70460104e-11 3.80993387e-13 2.95328415e-11 -3.06961644e-11 1.60029081e-13 1.31612429e-11 -1.36501539e-11 2.49235121e-13 1.74004700e-11 -1.81589830e-11 4.70199454e-13 3.37720685e-11 -3.52049917e-11 2.20964319e-13 1.63715968e-11 -1.70460104e-11 2.40543506e-13 1.69611200e-11 -1.76954840e-11 4.89778628e-13 3.43615900e-11 -3.58544652e-11 2.49235121e-13 1.74004700e-11 -1.81589830e-11 1.95199271e-13 1.46971810e-11 -1.53012655e-11 4.35742805e-13 3.16583010e-11 -3.29967512e-11 2.40543506e-13 1.69611200e-11 -1.76954840e-11 1.13647562e-13 9.37265890e-12 -9.73894836e-12 3.08846834e-13 2.40698399e-11 -2.50402147e-11 1.95199271e-13 1.46971810e-11 -1.53012655e-11 4.76441478e-44 5.78736266e-43 -6.57208980e-43 1.13647562e-13 9.37265890e-12 -9.73894836e-12 1.13647562e-13 9.37265890e-12 -9.73894836e-12 1.99127688e-13 1.62614297e-11 -1.68685083e-11 8.96787188e-14 6.89174369e-12 -7.14412774e-12 8.96787188e-14 6.89174369e-12 -7.14412774e-12 4.63842452e-13 3.72235298e-11 -3.86623754e-11 2.69478043e-13 2.25309285e-11 -2.33745349e-11 3.59156769e-13 2.94226726e-11 -3.05186640e-11 6.60640054e-13 4.80186342e-11 -5.00213655e-11 4.15328741e-13 3.10641998e-11 -3.23338509e-11 5.75357795e-13 4.42254428e-11 -4.59840048e-11 7.53386828e-13 5.17470303e-11 -5.40027051e-11 4.94546461e-13 3.43549043e-11 -3.58464994e-11 7.15510767e-13 5.07265029e-11 -5.28925098e-11 7.34223554e-13 5.07152376e-11 -5.29006665e-11 4.99383846e-13 3.43532425e-11 -3.58516897e-11 7.48618994e-13 5.17537124e-11 -5.40106709e-11 6.05666613e-13 4.42118182e-11 -4.60093838e-11 4.30038925e-13 3.10591761e-11 -3.23502440e-11 6.70582459e-13 4.80202926e-11 -5.00457280e-11 3.87137913e-13 2.94160980e-11 -3.05496288e-11 2.89275223e-13 2.25253028e-11 -2.33980873e-11 4.84474494e-13 3.72224820e-11 -3.86993528e-11 9.78626902e-14 6.89079566e-12 -7.15154281e-12 9.78626902e-14 6.89079566e-12 -7.15154281e-12 2.11510253e-13 1.62634541e-11 -1.68904907e-11 1.09448969e-13 9.36968558e-12 -9.72438102e-12 1.09448969e-13 9.36968558e-12 -9.72438102e-12 1.09448969e-13 9.36968558e-12 -9.72438102e-12 1.94364422e-13 1.46926013e-11 -1.52878404e-11 1.94364422e-13 1.46926013e-11 -1.52878404e-11 3.03813398e-13 2.40622869e-11 -2.50122215e-11 2.45311312e-13 1.69544361e-11 -1.76875164e-11 2.45311312e-13 1.69544361e-11 -1.76875164e-11 4.39675748e-13 3.16470357e-11 -3.29753551e-11 2.58840340e-13 1.73921225e-11 -1.81562057e-11 2.58840340e-13 1.73921225e-11 -1.81562057e-11 5.04151679e-13 3.43465568e-11 -3.58437238e-11 2.34839654e-13 1.63619951e-11 -1.70489785e-11 2.34839654e-13 1.63619951e-11 -1.70489785e-11 4.93680021e-13 3.37541176e-11 -3.52051860e-11 1.75627660e-13 1.31526430e-11 -1.36591389e-11 1.75627660e-13 1.31526430e-11 -1.36591389e-11 4.10467314e-13 2.95146373e-11 -3.07081166e-11 9.78626902e-14 6.89079566e-12 -7.15154281e-12 9.78626902e-14 6.89079566e-12 -7.15154281e-12 2.73490350e-13 2.00434391e-11 -2.08106813e-11 7.00649232e-45 6.82432352e-43 -7.11859620e-43 9.80908925e-45 1.08740761e-42 -1.13645305e-42 9.78626902e-14 6.89079566e-12 -7.15154281e-12 1.09448969e-13 9.36968558e-12 -9.72438102e-12 1.09448969e-13 9.36968558e-12 -9.72438102e-12 4.76441478e-44 7.30076500e-43 -8.14154408e-43 1.94364422e-13 1.46926013e-11 -1.52878404e-11 3.03813398e-13 2.40622869e-11 -2.50122215e-11 1.09448969e-13 9.36968558e-12 -9.72438102e-12 2.45311312e-13 1.69544361e-11 -1.76875164e-11 4.39675748e-13 3.16470357e-11 -3.29753551e-11 1.94364422e-13 1.46926013e-11 -1.52878404e-11 2.58840340e-13 1.73921225e-11 -1.81562057e-11 5.04151679e-13 3.43465568e-11 -3.58437238e-11 2.45311312e-13 1.69544361e-11 -1.76875164e-11 2.34839654e-13 1.63619951e-11 -1.70489785e-11 4.93680021e-13 3.37541176e-11 -3.52051860e-11 2.58840340e-13 1.73921225e-11 -1.81562057e-11 1.75627660e-13 1.31526430e-11 -1.36591389e-11 4.10467314e-13 2.95146373e-11 -3.07081166e-11 2.34839654e-13 1.63619951e-11 -1.70489785e-11 9.78626902e-14 6.89079566e-12 -7.15154281e-12 2.73490350e-13 2.00434391e-11 -2.08106813e-11 1.75627660e-13 1.31526430e-11 -1.36591389e-11 5.60519386e-45 4.72237582e-43 -4.98862253e-43 9.78626902e-14 6.89079566e-12 -7.15154281e-12 9.78626902e-14 6.89079566e-12 -7.15154281e-12 -1.12103877e-44 3.25101244e-43 -3.51725915e-43 -1.82168800e-44 1.03696086e-43 -1.33123354e-43 -0.00000000e+00 -2.27010351e-43 2.29812948e-43 4.20389539e-45 6.60011577e-43 -6.99247934e-43 -7.00649232e-45 9.93520611e-43 -1.05517774e-42 9.80908925e-45 3.32107736e-43 -3.44719422e-43 1.82168800e-44 8.15555706e-43 -8.66002451e-43 1.12103877e-44 1.48117248e-42 -1.57225688e-42 3.08285662e-44 6.71221964e-43 -6.97846635e-43 2.80259693e-44 8.73008943e-43 -9.27659583e-43 2.52233724e-44 1.69136725e-42 -1.79926723e-42 4.62428493e-44 8.26766094e-43 -8.64601152e-43 3.50324616e-44 8.74410242e-43 -9.26258285e-43 3.50324616e-44 1.74882048e-42 -1.85812176e-42 5.46506401e-44 8.84219331e-43 -9.27659583e-43 3.78350585e-44 7.88931035e-43 -8.30969989e-43 4.20389539e-44 1.66474258e-42 -1.76003087e-42 5.74532370e-44 8.85620629e-43 -9.29060882e-43 3.92363570e-44 4.96059656e-43 -5.22684327e-43 4.62428493e-44 1.28639199e-42 -1.35505562e-42 5.46506401e-44 7.98740125e-43 -8.33772586e-43 1.54142831e-44 -7.00649232e-45 -2.80259693e-44 2.94272678e-44 4.90454463e-43 -5.47907700e-43 4.34402524e-44 4.98862253e-43 -5.43703804e-43 -7.00649232e-45 4.48415509e-43 -5.01664850e-43 9.80908925e-45 1.17709071e-43 -1.37327250e-43 -1.40129846e-45 -9.52882956e-44 7.00649232e-44 1.82168800e-44 1.49658676e-42 -1.59607895e-42 3.50324616e-44 8.33772586e-43 -8.85620629e-43 2.38220739e-44 1.17288681e-42 -1.25976732e-42 4.62428493e-44 2.04449446e-42 -2.18462431e-42 6.58610278e-44 1.23314265e-42 -1.30881277e-42 6.30584309e-44 1.72639971e-42 -1.85251657e-42 6.30584309e-44 2.26730092e-42 -2.42845024e-42 8.40779079e-44 1.40410106e-42 -1.49378416e-42 8.96831017e-44 1.95481136e-42 -2.10615159e-42 7.28675201e-44 2.31354376e-42 -2.47329179e-42 9.10844002e-44 1.45034391e-42 -1.54282961e-42 1.02294788e-43 2.01366589e-42 -2.17061132e-42 7.42688186e-44 2.17201262e-42 -2.30653727e-42 8.96831017e-44 1.39289067e-42 -1.47556728e-42 1.03696086e-43 1.94640357e-42 -2.08793471e-42 7.00649232e-44 1.64232180e-42 -1.73340620e-42 7.84727140e-44 1.15326864e-42 -1.21352447e-42 9.38869971e-44 1.65213089e-42 -1.75722827e-42 3.22298647e-44 2.83062290e-43 -3.43318124e-43 4.62428493e-44 2.92871379e-43 -3.40515527e-43 6.72623263e-44 6.44597294e-43 -6.99247934e-43 2.38220739e-44 8.49186869e-43 -8.71607645e-43 1.12103877e-44 6.36189503e-43 -6.62814174e-43 2.80259693e-45 2.91470081e-43 -2.87266185e-43 5.18480432e-44 1.32562835e-42 -1.35225302e-42 4.20389539e-44 1.66474258e-42 -1.72639971e-42 2.24207754e-44 1.67174907e-42 -1.70117634e-42 7.98740125e-44 1.49658676e-42 -1.52601403e-42 7.84727140e-44 1.98984382e-42 -2.06831653e-42 5.04467447e-44 2.25188663e-42 -2.27991260e-42 9.66895940e-44 1.52321143e-42 -1.55263870e-42 1.00893489e-43 2.07532303e-42 -2.16500613e-42 7.28675201e-44 2.42704894e-42 -2.46068010e-42 9.94921910e-44 1.46155430e-42 -1.48537637e-42 1.09301280e-43 2.02487628e-42 -2.11455938e-42 8.26766094e-44 2.39762167e-42 -2.42985154e-42 9.24856986e-44 1.24575433e-42 -1.26116862e-42 1.05097385e-43 1.79926723e-42 -1.87353605e-42 8.26766094e-44 2.17761781e-42 -2.20143989e-42 7.42688186e-44 7.46892081e-43 -7.46892081e-43 8.96831017e-44 1.24435304e-42 -1.29059589e-42 7.14662217e-44 1.61709843e-42 -1.62550622e-42 3.22298647e-44 -4.03573958e-43 3.85357078e-43 5.32493416e-44 -5.18480432e-44 2.66246708e-44 5.18480432e-44 5.38098610e-43 -5.42302506e-43 1.40129846e-44 5.17079133e-43 -4.96059656e-43 4.20389539e-45 5.19881730e-43 -4.94658358e-43 4.20389539e-45 5.07270044e-43 -4.91855761e-43 2.94272678e-44 8.46384272e-43 -8.08549214e-43 9.80908925e-45 8.53390765e-43 -8.08549214e-43 1.40129846e-44 1.33964133e-42 -1.32702965e-42 4.76441478e-44 9.64093343e-43 -9.12245300e-43 2.38220739e-44 9.78106328e-43 -9.12245300e-43 2.80259693e-44 1.77264256e-42 -1.73620880e-42 5.88545355e-44 9.80908925e-43 -9.23455688e-43 3.22298647e-44 1.00052710e-42 -9.23455688e-43 4.06376555e-44 1.89455552e-42 -1.84691138e-42 6.30584309e-44 9.29060882e-43 -8.73008943e-43 3.64337601e-44 9.51481657e-43 -8.71607645e-43 4.62428493e-44 1.85531917e-42 -1.80066853e-42 5.88545355e-44 7.67911558e-43 -7.17464814e-43 3.64337601e-44 7.90332334e-43 -7.16063515e-43 4.62428493e-44 1.64512440e-42 -1.58767116e-42 4.76441478e-44 4.14784345e-43 -3.69942795e-43 3.08285662e-44 4.35803822e-43 -3.71344093e-43 3.92363570e-44 1.13925565e-42 -1.08180241e-42 2.66246708e-44 -1.89175293e-43 1.68155816e-43 2.10194770e-44 -1.68155816e-43 1.84971397e-43 2.66246708e-44 2.05990874e-43 -1.66754517e-43 -7.00649232e-45 5.17079133e-43 -5.00263552e-43 -7.00649232e-45 5.04467447e-43 -4.98862253e-43 -1.12103877e-44 -2.80259693e-45 2.10194770e-44 -1.40129846e-44 8.53390765e-43 -8.08549214e-43 -9.80908925e-45 1.33824003e-42 -1.32702965e-42 -1.96181785e-44 5.12875238e-43 -5.01664850e-43 -1.54142831e-44 9.78106328e-43 -9.12245300e-43 -1.12103877e-44 1.77264256e-42 -1.73620880e-42 -3.36311631e-44 8.46384272e-43 -8.08549214e-43 -1.54142831e-44 9.99125805e-43 -9.23455688e-43 -8.40779079e-45 1.89455552e-42 -1.84691138e-42 -3.92363570e-44 9.64093343e-43 -9.12245300e-43 -1.54142831e-44 9.51481657e-43 -8.71607645e-43 -5.60519386e-45 1.85531917e-42 -1.80066853e-42 -4.06376555e-44 9.80908925e-43 -9.23455688e-43 -1.40129846e-44 7.90332334e-43 -7.16063515e-43 -4.20389539e-45 1.64512440e-42 -1.58767116e-42 -4.06376555e-44 9.29060882e-43 -8.73008943e-43 -1.26116862e-44 4.35803822e-43 -3.71344093e-43 -4.20389539e-45 1.14065695e-42 -1.08180241e-42 -3.50324616e-44 7.67911558e-43 -7.17464814e-43 -7.00649232e-45 -1.69557114e-43 1.65353219e-43 -1.40129846e-45 2.05990874e-43 -1.84971397e-43 -2.38220739e-44 4.14784345e-43 -3.89560973e-43 -4.20389539e-45 7.93134931e-43 -8.11351811e-43 -8.40779079e-45 2.85864887e-43 -2.91470081e-43 -1.40129846e-45 2.87266185e-43 -2.94272678e-43 -1.12103877e-44 2.03888927e-42 -2.06831653e-42 -2.10194770e-44 1.21352447e-42 -1.24435304e-42 -5.60519386e-45 1.50499455e-42 -1.55544130e-42 -1.82168800e-44 2.73673590e-42 -2.76616317e-42 -3.92363570e-44 1.81047762e-42 -1.83710229e-42 -2.10194770e-44 2.51813334e-42 -2.57979047e-42 -1.82168800e-44 2.96795015e-42 -2.99737742e-42 -4.90454463e-44 2.03608667e-42 -2.06271134e-42 -3.082856