# vtk DataFile Version 2.0
Tornado_init.vtk, Created by Freefem++ 
ASCII
DATASET UNSTRUCTURED_GRID
POINTS 60 float
-0.10000000 0.00000000 -0.12500000
-0.10000000 0.00000000 0.03125000
-0.10000000 0.00000000 0.18750000
-0.10000000 0.00000000 0.34375000
-0.10000000 0.00000000 0.50000000
-0.00000000 -0.10000000 -0.12500000
-0.00000000 -0.10000000 0.03125000
-0.00000000 -0.10000000 0.18750000
-0.00000000 -0.10000000 0.34375000
-0.00000000 -0.10000000 0.50000000
0.10000000 0.00000000 -0.12500000
0.10000000 0.00000000 0.03125000
0.10000000 0.00000000 0.18750000
0.10000000 0.00000000 0.34375000
0.10000000 0.00000000 0.50000000
-0.00000000 -0.40000001 -0.12500000
-0.00000000 -0.40000001 0.03125000
-0.00000000 -0.40000001 0.18750000
-0.00000000 -0.40000001 0.34375000
-0.00000000 -0.40000001 0.50000000
0.00000000 0.10000000 -0.12500000
0.00000000 0.10000000 0.03125000
0.00000000 0.10000000 0.18750000
0.00000000 0.10000000 0.34375000
0.00000000 0.10000000 0.50000000
0.00000000 0.40000001 -0.12500000
0.00000000 0.40000001 0.03125000
0.00000000 0.40000001 0.18750000
0.00000000 0.40000001 0.34375000
0.00000000 0.40000001 0.50000000
-0.40000001 0.00000000 -0.12500000
-0.40000001 0.00000000 0.03125000
-0.40000001 0.00000000 0.18750000
-0.40000001 0.00000000 0.34375000
-0.40000001 0.00000000 0.50000000
-1.00000000 0.00000000 -0.12500000
-1.00000000 0.00000000 0.03125000
-1.00000000 0.00000000 0.18750000
-1.00000000 0.00000000 0.34375000
-1.00000000 0.00000000 0.50000000
-0.00000000 -1.00000000 -0.12500000
-0.00000000 -1.00000000 0.03125000
-0.00000000 -1.00000000 0.18750000
-0.00000000 -1.00000000 0.34375000
-0.00000000 -1.00000000 0.50000000
0.40000001 0.00000000 -0.12500000
0.40000001 0.00000000 0.03125000
0.40000001 0.00000000 0.18750000
0.40000001 0.00000000 0.34375000
0.40000001 0.00000000 0.50000000
0.00000000 1.00000000 -0.12500000
0.00000000 1.00000000 0.03125000
0.00000000 1.00000000 0.18750000
0.00000000 1.00000000 0.34375000
0.00000000 1.00000000 0.50000000
1.00000000 0.00000000 -0.12500000
1.00000000 0.00000000 0.03125000
1.00000000 0.00000000 0.18750000
1.00000000 0.00000000 0.34375000
1.00000000 0.00000000 0.50000000

CELLS 348 1608
4 23 24 8 13
4 8 14 13 24
4 8 14 24 9
4 22 23 7 12
4 7 13 12 23
4 7 13 23 8
4 21 22 6 11
4 6 12 11 22
4 6 12 22 7
4 20 21 5 10
4 5 11 10 21
4 5 11 21 6
4 3 24 8 23
4 3 9 8 24
4 3 24 4 9
4 2 23 7 22
4 2 8 7 23
4 2 23 3 8
4 1 22 6 21
4 1 7 6 22
4 1 22 2 7
4 0 21 5 20
4 0 6 5 21
4 0 21 1 6
4 23 49 48 28
4 23 49 28 29
4 23 29 24 49
4 22 48 47 27
4 22 48 27 28
4 22 28 23 48
4 21 47 46 26
4 21 47 26 27
4 21 27 22 47
4 20 46 45 25
4 20 46 25 26
4 20 26 21 46
4 23 49 13 48
4 23 24 13 49
4 13 49 24 14
4 22 48 12 47
4 22 23 12 48
4 12 48 23 13
4 21 47 11 46
4 21 22 11 47
4 11 47 22 12
4 20 46 10 45
4 20 21 10 46
4 10 46 21 11
4 13 49 18 48
4 13 19 18 49
4 13 49 14 19
4 12 48 17 47
4 12 18 17 48
4 12 48 13 18
4 11 47 16 46
4 11 17 16 47
4 11 47 12 17
4 10 46 15 45
4 10 16 15 46
4 10 46 11 16
4 13 19 8 18
4 13 14 8 19
4 8 19 14 9
4 12 18 7 17
4 12 13 7 18
4 7 18 13 8
4 11 17 6 16
4 11 12 6 17
4 6 17 12 7
4 10 16 5 15
4 10 11 5 16
4 5 16 11 6
4 8 34 33 18
4 8 34 18 19
4 8 19 9 34
4 7 33 32 17
4 7 33 17 18
4 7 18 8 33
4 6 32 31 16
4 6 32 16 17
4 6 17 7 32
4 5 31 30 15
4 5 31 15 16
4 5 16 6 31
4 33 34 8 3
4 8 9 3 34
4 3 4 34 9
4 32 33 7 2
4 7 8 2 33
4 2 3 33 8
4 31 32 6 1
4 6 7 1 32
4 1 2 32 7
4 30 31 5 0
4 5 6 0 31
4 0 1 31 6
4 33 34 3 23
4 3 24 23 34
4 3 24 34 4
4 32 33 2 22
4 2 23 22 33
4 2 23 33 3
4 31 32 1 21
4 1 22 21 32
4 1 22 32 2
4 30 31 0 20
4 0 21 20 31
4 0 21 31 1
4 33 34 23 28
4 23 29 28 34
4 23 29 34 24
4 32 33 22 27
4 22 28 27 33
4 22 28 33 23
4 31 32 21 26
4 21 27 26 32
4 21 27 32 22
4 30 31 20 25
4 20 26 25 31
4 20 26 31 21
4 58 59 53 48
4 53 54 48 59
4 48 49 59 54
4 57 58 52 47
4 52 53 47 58
4 47 48 58 53
4 56 57 51 46
4 51 52 46 57
4 46 47 57 52
4 55 56 50 45
4 50 51 45 56
4 45 46 56 51
4 28 54 48 53
4 28 49 48 54
4 28 54 29 49
4 27 53 47 52
4 27 48 47 53
4 27 53 28 48
4 26 52 46 51
4 26 47 46 52
4 26 52 27 47
4 25 51 45 50
4 25 46 45 51
4 25 51 26 46
4 33 54 28 53
4 33 34 28 54
4 28 54 34 29
4 32 53 27 52
4 32 33 27 53
4 27 53 33 28
4 31 52 26 51
4 31 32 26 52
4 26 52 32 27
4 30 51 25 50
4 30 31 25 51
4 25 51 31 26
4 53 54 38 33
4 38 39 33 54
4 33 34 54 39
4 52 53 37 32
4 37 38 32 53
4 32 33 53 38
4 51 52 36 31
4 36 37 31 52
4 31 32 52 37
4 50 51 35 30
4 35 36 30 51
4 30 31 51 36
4 38 44 43 33
4 38 44 33 39
4 33 34 39 44
4 37 43 42 32
4 37 43 32 38
4 32 33 38 43
4 36 42 41 31
4 36 42 31 37
4 31 32 37 42
4 35 41 40 30
4 35 41 30 36
4 30 31 36 41
4 33 44 43 18
4 33 44 18 34
4 18 19 34 44
4 32 43 42 17
4 32 43 17 33
4 17 18 33 43
4 31 42 41 16
4 31 42 16 32
4 16 17 32 42
4 30 41 40 15
4 30 41 15 31
4 15 16 31 41
4 18 49 43 48
4 18 44 43 49
4 18 49 19 44
4 17 48 42 47
4 17 43 42 48
4 17 48 18 43
4 16 47 41 46
4 16 42 41 47
4 16 47 17 42
4 15 46 40 45
4 15 41 40 46
4 15 46 16 41
4 43 59 58 48
4 43 59 48 49
4 43 49 44 59
4 42 58 57 47
4 42 58 47 48
4 42 48 43 58
4 41 57 56 46
4 41 57 46 47
4 41 47 42 57
4 40 56 55 45
4 40 56 45 46
4 40 46 41 56
3 24 9 14
3 4 9 24
3 24 49 29
3 24 14 49
3 14 19 49
3 14 9 19
3 9 34 19
3 34 9 4
3 34 4 24
3 34 24 29
3 59 54 49
3 29 49 54
3 34 29 54
3 54 39 34
3 39 44 34
3 34 44 19
3 19 44 49
3 44 59 49
3 10 5 20
3 20 5 0
3 25 45 20
3 45 10 20
3 45 15 10
3 15 5 10
3 15 30 5
3 0 5 30
3 20 0 30
3 25 20 30
3 45 50 55
3 50 45 25
3 50 25 30
3 30 35 50
3 30 40 35
3 15 40 30
3 45 40 15
3 45 55 40
3 13 23 24
3 24 14 13
3 12 22 23
3 23 13 12
3 11 21 22
3 22 12 11
3 10 20 21
3 21 11 10
3 23 3 24
3 4 24 3
3 22 2 23
3 3 23 2
3 21 1 22
3 2 22 1
3 20 0 21
3 1 21 0
3 3 8 9
3 9 4 3
3 2 7 8
3 8 3 2
3 1 6 7
3 7 2 1
3 0 5 6
3 6 1 0
3 8 13 14
3 14 9 8
3 7 12 13
3 13 8 7
3 6 11 12
3 12 7 6
3 5 10 11
3 11 6 5
3 48 28 49
3 29 49 28
3 47 27 48
3 28 48 27
3 46 26 47
3 27 47 26
3 45 25 46
3 26 46 25
3 28 33 34
3 34 29 28
3 27 32 33
3 33 28 27
3 26 31 32
3 32 27 26
3 25 30 31
3 31 26 25
3 33 18 34
3 19 34 18
3 32 17 33
3 18 33 17
3 31 16 32
3 17 32 16
3 30 15 31
3 16 31 15
3 18 48 49
3 49 19 18
3 17 47 48
3 48 18 17
3 16 46 47
3 47 17 16
3 15 45 46
3 46 16 15
3 58 53 59
3 54 59 53
3 57 52 58
3 53 58 52
3 56 51 57
3 52 57 51
3 55 50 56
3 51 56 50
3 53 38 54
3 39 54 38
3 52 37 53
3 38 53 37
3 51 36 52
3 37 52 36
3 50 35 51
3 36 51 35
3 38 43 44
3 44 39 38
3 37 42 43
3 43 38 37
3 36 41 42
3 42 37 36
3 35 40 41
3 41 36 35
3 43 58 59
3 59 44 43
3 42 57 58
3 58 43 42
3 41 56 57
3 57 42 41
3 40 55 56
3 56 41 40

CELL_TYPES 348
10 10 10 10 10 10 10 10 10 10 10 10 10 10 10 10 10 10 10 10 10 10 10 10 10 10 10 10 10 10 10 10 10 10 10 10 10 10 10 10 10 10 10 10 10 10 10 10 10 10 10 10 10 10 10 10 10 10 10 10 10 10 10 10 10 10 10 10 10 10 10 10 10 10 10 10 10 10 10 10 10 10 10 10 10 10 10 10 10 10 10 10 10 10 10 10 10 10 10 10 10 10 10 10 10 10 10 10 10 10 10 10 10 10 10 10 10 10 10 10 10 10 10 10 10 10 10 10 10 10 10 10 10 10 10 10 10 10 10 10 10 10 10 10 10 10 10 10 10 10 10 10 10 10 10 10 10 10 10 10 10 10 10 10 10 10 10 10 10 10 10 10 10 10 10 10 10 10 10 10 10 10 10 10 10 10 10 10 10 10 10 10 10 10 10 10 10 10 10 10 10 10 10 10 10 10 10 10 10 10 10 10 10 10 10 10 5 5 5 5 5 5 5 5 5 5 5 5 5 5 5 5 5 5 5 5 5 5 5 5 5 5 5 5 5 5 5 5 5 5 5 5 5 5 5 5 5 5 5 5 5 5 5 5 5 5 5 5 5 5 5 5 5 5 5 5 5 5 5 5 5 5 5 5 5 5 5 5 5 5 5 5 5 5 5 5 5 5 5 5 5 5 5 5 5 5 5 5 5 5 5 5 5 5 5 5 5 5 5 5 5 5 5 5 5 5 5 5 5 5 5 5 5 5 5 5 5 5 5 5 5 5 5 5 5 5 5 5 
CELL_DATA 348
Scalars  Label int1
LOOKUP_TABLE FreeFempp_table
0
0
0
0
0
0
0
0
0
0
0
0
0
0
0
0
0
0
0
0
0
0
0
0
1
1
1
1
1
1
1
1
1
1
1
1
1
1
1
1
1
1
1
1
1
1
1
1
1
1
1
1
1
1
1
1
1
1
1
1
1
1
1
1
1
1
1
1
1
1
1
1
1
1
1
1
1
1
1
1
1
1
1
1
1
1
1
1
1
1
1
1
1
1
1
1
1
1
1
1
1
1
1
1
1
1
1
1
1
1
1
1
1
1
1
1
1
1
1
1
2
2
2
2
2
2
2
2
2
2
2
2
2
2
2
2
2
2
2
2
2
2
2
2
2
2
2
2
2
2
2
2
2
2
2
2
2
2
2
2
2
2
2
2
2
2
2
2
2
2
2
2
2
2
2
2
2
2
2
2
2
2
2
2
2
2
2
2
2
2
2
2
2
2
2
2
2
2
2
2
2
2
2
2
2
2
2
2
2
2
2
2
2
2
2
2
1
1
1
1
1
1
1
1
1
1
2
2
2
2
2
2
2
2
1
1
1
1
1
1
1
1
1
1
2
2
2
2
2
2
2
2
4
4
4
4
4
4
4
4
4
4
4
4
4
4
4
4
4
4
4
4
4
4
4
4
4
4
4
4
4
4
4
4
3
3
3
3
3
3
3
3
3
3
3
3
3
3
3
3
3
3
3
3
3
3
3
3
3
3
3
3
3
3
3
3
2
2
2
2
2
2
2
2
2
2
2
2
2
2
2
2
2
2
2
2
2
2
2
2
2
2
2
2
2
2
2
2

LOOKUP_TABLE FreeFempp_table 5
1.00000000 0.00000000 0.00000000 1.00000000
1.00000000 1.00000000 0.00000000 1.00000000
1.00000000 0.00000000 1.00000000 1.00000000
0.00000000 1.00000000 0.00000000 1.00000000
0.00000000 1.00000000 1.00000000 1.00000000

FIELD FieldData 2
init 3 348 float
-4.66441125e-01 -4.43093807e-01 8.62121165e-01 -4.19386923e-01 -4.66800719e-01 8.38773847e-01 4.70542088e-02 -2.37068981e-02 8.15426528e-01 -4.84192252e-01 -4.66441125e-01 9.38721895e-01 -4.60485369e-01 -4.72396880e-01 9.20970738e-01 2.37068981e-02 -5.95576083e-03 9.03219581e-01 -4.92357284e-01 -4.84192252e-01 9.80968058e-01 -4.86401528e-01 -4.81983006e-01 9.72803056e-01 5.95576083e-03 2.20925245e-03 9.64637995e-01 -4.88790691e-01 -2.20925245e-03 9.78433311e-01 -9.81147945e-01 -3.56658548e-03 9.81999874e-01 -4.92357284e-01 -1.35733304e-03 9.85566497e-01 -2.37068981e-02 4.70542088e-02 8.62121165e-01 4.66441125e-01 4.66441125e-01 8.38773847e-01 4.19386923e-01 4.90148038e-01 8.15426528e-01 -5.95576083e-03 2.37068981e-02 9.38721895e-01 4.84192252e-01 4.84192252e-01 9.20970738e-01 4.60485369e-01 4.90148038e-01 9.03219581e-01 2.20925245e-03 5.95576083e-03 9.80968058e-01 4.92357284e-01 4.92357284e-01 9.72803056e-01 4.86401528e-01 4.90148038e-01 9.64637995e-01 -1.35733304e-03 -4.92357284e-01 9.78433311e-01 -1.35733304e-03 -1.35733304e-03 9.81999874e-01 4.90999937e-01 -5.55111512e-17 9.85566497e-01 -7.96020567e-01 -7.85690606e-01 7.79265046e-01 -7.89069235e-01 -7.72313714e-01 7.58936763e-01 -8.48352551e-01 -7.77591407e-01 7.64214516e-01 -8.31804574e-01 -8.18897486e-01 8.48255873e-01 -8.09397519e-01 -8.25848818e-01 8.32800150e-01 -8.68680835e-01 -8.39018166e-01 8.45969498e-01 -8.54369521e-01 -8.34171712e-01 8.86094987e-01 -8.24853241e-01 -8.56578767e-01 8.78985822e-01 -8.84136558e-01 -8.80390048e-01 9.02797103e-01 3.35616549e-03 -4.55918282e-01 8.83426845e-01 2.97670309e-02 -8.57015967e-01 8.86532247e-01 -4.01097715e-01 -8.92097652e-01 9.21613932e-01 -8.31596971e-01 -8.38022590e-01 8.07890058e-01 -8.83928955e-01 -8.50251675e-01 8.13167810e-01 -8.36874723e-01 -8.73958528e-01 7.89820492e-01 -8.85132134e-01 -8.55773687e-01 8.79176319e-01 -9.22008336e-01 -8.91350091e-01 8.92345667e-01 -8.98301423e-01 -8.97305846e-01 8.74594510e-01 -9.15862024e-01 -8.63938749e-01 9.18071270e-01 -9.45629060e-01 -9.17266250e-01 9.41882551e-01 -9.39673305e-01 -9.15057003e-01 9.33717549e-01 -4.26151246e-01 1.35733304e-03 9.14941907e-01 -4.59023654e-01 -4.31716651e-01 9.50023592e-01 -9.51380908e-01 -4.33073997e-01 9.53590214e-01 -4.00732249e-01 -4.23913419e-01 7.79265046e-01 -2.21994575e-02 -6.57088906e-02 7.58936763e-01 -4.06009972e-01 -5.03524959e-01 7.64214516e-01 -4.54267383e-01 -4.08457667e-01 8.48255873e-01 -6.02788590e-02 -2.99248938e-02 8.32800150e-01 -4.67436701e-01 -4.83196706e-01 8.45969498e-01 -4.84997302e-01 -4.01348472e-01 8.86094987e-01 -8.38996023e-02 -7.35996896e-03 8.78985822e-01 -5.08808553e-01 -4.67740953e-01 9.02797103e-01 -8.57015967e-01 4.57275599e-01 8.83426845e-01 -4.59023654e-01 4.86791849e-01 8.86532247e-01 -5.20516217e-01 2.95162555e-02 9.21613932e-01 3.95288348e-01 3.41448963e-01 8.07890058e-01 1.14778206e-02 -9.63671133e-02 8.13167810e-01 4.77918953e-01 3.46726686e-01 7.89820492e-01 3.77537221e-01 3.94984096e-01 8.79176319e-01 -2.96206288e-02 -5.82877174e-02 8.92345667e-01 4.54571635e-01 4.08153415e-01 8.74594510e-01 3.69372189e-01 4.25714016e-01 9.18071270e-01 -5.55367805e-02 -3.46669704e-02 9.41882551e-01 4.36820507e-01 4.49525297e-01 9.33717549e-01 -4.88790691e-01 9.16299284e-01 9.14941907e-01 -5.50283253e-01 4.59023654e-01 9.50023592e-01 -6.14925399e-02 4.61232901e-01 9.53590214e-01 7.96020567e-01 7.85690606e-01 7.79265046e-01 7.89069235e-01 7.72313714e-01 7.58936763e-01 8.48352551e-01 7.77591407e-01 7.64214516e-01 8.31804574e-01 8.18897486e-01 8.48255873e-01 8.09397519e-01 8.25848818e-01 8.32800150e-01 8.68680835e-01 8.39018166e-01 8.45969498e-01 8.54369521e-01 8.34171712e-01 8.86094987e-01 8.24853241e-01 8.56578767e-01 8.78985822e-01 8.84136558e-01 8.80390048e-01 9.02797103e-01 -3.35616549e-03 4.55918282e-01 8.83426845e-01 -2.97670309e-02 8.57015967e-01 8.86532247e-01 4.01097715e-01 8.92097652e-01 9.21613932e-01 8.31596971e-01 8.38022590e-01 8.07890058e-01 8.83928955e-01 8.50251675e-01 8.13167810e-01 8.36874723e-01 8.73958528e-01 7.89820492e-01 8.85132134e-01 8.55773687e-01 8.79176319e-01 9.22008336e-01 8.91350091e-01 8.92345667e-01 8.98301423e-01 8.97305846e-01 8.74594510e-01 9.15862024e-01 8.63938749e-01 9.18071270e-01 9.45629060e-01 9.17266250e-01 9.41882551e-01 9.39673305e-01 9.15057003e-01 9.33717549e-01 4.26151246e-01 -1.35733304e-03 9.14941907e-01 4.59023654e-01 4.31716651e-01 9.50023592e-01 9.51380908e-01 4.33073997e-01 9.53590214e-01 3.41448963e-01 3.95288348e-01 8.07890058e-01 -9.63671133e-02 1.14778206e-02 8.13167810e-01 3.46726686e-01 4.77918953e-01 7.89820492e-01 3.94984096e-01 3.77537221e-01 8.79176319e-01 -5.82877174e-02 -2.96206288e-02 8.92345667e-01 4.08153415e-01 4.54571635e-01 8.74594510e-01 4.25714016e-01 3.69372189e-01 9.18071270e-01 -3.46669704e-02 -5.55367805e-02 9.41882551e-01 4.49525297e-01 4.36820507e-01 9.33717549e-01 9.16299284e-01 -4.88790691e-01 9.14941907e-01 4.59023654e-01 -5.50283253e-01 9.50023592e-01 4.61232901e-01 -6.14925399e-02 9.53590214e-01 -6.57088906e-02 -4.25277203e-02 7.79265046e-01 -4.44241673e-01 -4.00732249e-01 7.58936763e-01 -5.03524959e-01 -4.06009972e-01 7.64214516e-01 -2.99248938e-02 -7.57345855e-02 8.48255873e-01 -4.23913419e-01 -4.54267383e-01 8.32800150e-01 -4.83196706e-01 -4.67436701e-01 8.45969498e-01 -7.35996896e-03 -9.10087973e-02 8.86094987e-01 -4.08457667e-01 -4.84997302e-01 8.78985822e-01 -4.67740953e-01 -5.08808553e-01 9.02797103e-01 8.58373284e-01 -4.55918282e-01 8.83426845e-01 4.60381001e-01 -4.85434532e-01 8.86532247e-01 2.95162555e-02 -5.20516217e-01 9.21613932e-01 -4.67032462e-01 -4.22581106e-01 5.16322851e-01 -4.17742044e-01 -4.60081130e-01 5.04532456e-01 -5.27655840e-01 -5.34081459e-01 5.65155864e-01 -5.03242910e-01 -4.31545436e-01 5.61497629e-01 -4.44988191e-01 -4.80835825e-01 5.52533269e-01 -5.75230241e-01 -5.45871854e-01 6.24520659e-01 -5.23439765e-01 -4.35668766e-01 5.85817814e-01 -4.61061686e-01 -4.93923485e-01 5.81694484e-01 -6.06759489e-01 -5.54836154e-01 6.65014207e-01 -3.97656560e-01 6.27138019e-02 5.83233476e-01 -3.37079644e-01 -1.24664247e-01 5.85034609e-01 -6.14886642e-01 -1.87378049e-01 6.77264690e-01 -5.03532767e-01 -5.90323150e-01 5.97274482e-01 -6.13446593e-01 -6.64323509e-01 6.57897890e-01 -6.06495261e-01 -6.50946558e-01 6.37569666e-01 -5.18988490e-01 -6.26533628e-01 6.48940682e-01 -6.49230599e-01 -6.91569626e-01 7.20928013e-01 -6.26823485e-01 -6.98520958e-01 7.05472291e-01 -5.26097715e-01 -6.46730483e-01 6.76246703e-01 -6.71795487e-01 -7.07643151e-01 7.59566486e-01 -6.42279267e-01 -7.30050206e-01 7.52457261e-01 -2.64108665e-02 -2.74365842e-01 6.72358155e-01 -3.04217845e-01 -3.37079644e-01 7.64588237e-01 -2.77806967e-01 -7.38177359e-01 7.67693579e-01 -1.18048668e-01 -2.18741730e-01 5.97274482e-01 1.16865128e-01 7.88393915e-02 6.57897890e-01 -2.61667669e-01 -2.79365122e-01 6.37569666e-01 -1.02592938e-01 -2.54952163e-01 6.48940682e-01 1.52649119e-01 5.15932702e-02 7.20928013e-01 -2.41339400e-01 -3.26939523e-01 7.05472291e-01 -9.54837427e-02 -2.75149018e-01 6.76246703e-01 1.75214037e-01 3.55197527e-02 7.59566486e-01 -2.25883663e-01 -3.58468771e-01 7.52457261e-01 3.97992313e-01 -6.45947278e-01 6.72358155e-01 5.50799310e-01 -3.37079644e-01 7.64588237e-01 1.52806982e-01 -3.66595894e-01 7.67693579e-01 1.79532453e-01 3.65003310e-02 5.16322851e-01 3.42032462e-01 2.10790724e-01 5.04532456e-01 4.02655840e-01 3.34081441e-01 5.65155864e-01 2.03952506e-01 1.57456156e-02 5.61497629e-01 3.78242910e-01 1.99000329e-01 5.52533269e-01 4.50230241e-01 3.22291046e-01 6.24520659e-01 2.15185031e-01 2.65795947e-03 5.85817814e-01 3.98439735e-01 1.90036014e-01 5.81694484e-01 4.81759489e-01 3.13326746e-01 6.65014207e-01 3.35278511e-01 -4.96245712e-01 5.83233476e-01 3.97656560e-01 -3.10668766e-01 5.85034609e-01 4.89886612e-01 -6.23780489e-02 6.77264690e-01 4.29532439e-01 4.60081130e-01 5.16322851e-01 4.67032462e-01 4.10790712e-01 5.04532456e-01 5.27655840e-01 5.34081459e-01 5.65155864e-01 4.53952491e-01 4.80835825e-01 5.61497629e-01 5.03242910e-01 4.22581106e-01 5.52533269e-01 5.75230241e-01 5.45871854e-01 6.24520659e-01 4.65185016e-01 4.93923485e-01 5.85817814e-01 5.23439765e-01 4.31545436e-01 5.81694484e-01 6.06759489e-01 5.54836154e-01 6.65014207e-01 3.35278511e-01 -3.35753459e-04 5.83233476e-01 5.22656560e-01 -6.09126762e-02 5.85034609e-01 6.14886642e-01 1.87378049e-01 6.77264690e-01 5.03532767e-01 5.90323150e-01 5.97274482e-01 6.13446593e-01 6.64323509e-01 6.57897890e-01 6.06495261e-01 6.50946558e-01 6.37569666e-01 5.18988490e-01 6.26533628e-01 6.48940682e-01 6.49230599e-01 6.91569626e-01 7.20928013e-01 6.26823485e-01 6.98520958e-01 7.05472291e-01 5.26097715e-01 6.46730483e-01 6.76246703e-01 6.71795487e-01 7.07643151e-01 7.59566486e-01 6.42279267e-01 7.30050206e-01 7.52457261e-01 2.64108665e-02 2.74365842e-01 6.72358155e-01 3.04217845e-01 3.37079644e-01 7.64588237e-01 2.77806967e-01 7.38177359e-01 7.67693579e-01 -1.16865128e-01 -6.70490041e-02 6.69688284e-01 1.38376936e-01 2.18741730e-01 5.76946259e-01 2.61667669e-01 2.79365122e-01 6.37569666e-01 -1.52649119e-01 -4.26289439e-02 7.29892373e-01 1.18048668e-01 2.54952163e-01 6.33484960e-01 2.41339400e-01 3.26939523e-01 7.05472291e-01 -1.75214037e-01 -3.13964225e-02 7.63689816e-01 1.02592938e-01 2.75149018e-01 6.69137537e-01 2.25883663e-01 3.58468771e-01 7.52457261e-01 -6.75799310e-01 3.35278511e-01 7.62787104e-01 -4.01097715e-01 2.74365842e-01 6.75463557e-01 -1.52806982e-01 3.66595894e-01 7.67693579e-01 -3.42032462e-01 -1.99000329e-01 5.16322851e-01 -4.02655840e-01 -3.22291046e-01 5.76946259e-01 -1.47413790e-01 -3.65003310e-02 4.84204173e-01 -3.78242910e-01 -1.90036014e-01 5.61497629e-01 -4.50230241e-01 -3.13326746e-01 6.33484960e-01 -1.79532453e-01 -1.57456156e-02 5.37077546e-01 -3.98439735e-01 -1.85912684e-01 5.85817814e-01 -4.81759489e-01 -3.09203416e-01 6.69137537e-01 -2.03952506e-01 -2.65795947e-03 5.74585259e-01 -5.22656560e-01 3.08867663e-01 5.83233476e-01 -6.14886642e-01 6.05769232e-02 6.75463557e-01 -3.40185016e-01 -3.35753459e-04 5.88140011e-01 4.70542088e-02 -2.37068981e-02 8.15426528e-01 4.19386923e-01 4.90148038e-01 8.15426528e-01 -8.48352551e-01 -7.77591407e-01 7.64214516e-01 -8.36874723e-01 -8.73958528e-01 7.89820492e-01 -4.06009972e-01 -5.03524959e-01 7.64214516e-01 4.77918953e-01 3.46726686e-01 7.89820492e-01 8.48352551e-01 7.77591407e-01 7.64214516e-01 8.36874723e-01 8.73958528e-01 7.89820492e-01 3.46726686e-01 4.77918953e-01 7.89820492e-01 -5.03524959e-01 -4.06009972e-01 7.64214516e-01 -5.27655840e-01 -5.34081459e-01 5.65155864e-01 -6.06495261e-01 -6.50946558e-01 6.37569666e-01 -2.61667669e-01 -2.79365122e-01 6.37569666e-01 4.02655840e-01 3.34081441e-01 5.65155864e-01 5.27655840e-01 5.34081459e-01 5.65155864e-01 6.06495261e-01 6.50946558e-01 6.37569666e-01 2.61667669e-01 2.79365122e-01 6.37569666e-01 -1.47413790e-01 -3.65003310e-02 4.84204173e-01 -4.88790691e-01 -2.20925245e-03 9.78433311e-01 -1.35733304e-03 -4.92357284e-01 9.78433311e-01 3.35616549e-03 -4.55918282e-01 8.83426845e-01 -4.26151246e-01 1.35733304e-03 9.14941907e-01 -8.57015967e-01 4.57275599e-01 8.83426845e-01 -4.88790691e-01 9.16299284e-01 9.14941907e-01 -3.35616549e-03 4.55918282e-01 8.83426845e-01 4.26151246e-01 -1.35733304e-03 9.14941907e-01 9.16299284e-01 -4.88790691e-01 9.14941907e-01 8.58373284e-01 -4.55918282e-01 8.83426845e-01 -3.97656560e-01 6.27138019e-02 5.83233476e-01 -2.64108665e-02 -2.74365842e-01 6.72358155e-01 3.97992313e-01 -6.45947278e-01 6.72358155e-01 3.35278511e-01 -4.96245712e-01 5.83233476e-01 3.35278511e-01 -3.35753459e-04 5.83233476e-01 2.64108665e-02 2.74365842e-01 6.72358155e-01 -6.75799310e-01 3.35278511e-01 7.62787104e-01 -5.22656560e-01 3.08867663e-01 5.83233476e-01 -8.83928955e-01 -8.50251675e-01 8.13167810e-01 -8.36874723e-01 -8.73958528e-01 7.89820492e-01 -9.22008336e-01 -8.91350091e-01 8.92345667e-01 -8.98301423e-01 -8.97305846e-01 8.74594510e-01 -9.45629060e-01 -9.17266250e-01 9.41882551e-01 -9.39673305e-01 -9.15057003e-01 9.33717549e-01 -4.59023654e-01 -4.31716651e-01 9.50023592e-01 -9.51380908e-01 -4.33073997e-01 9.53590214e-01 -9.63671133e-02 1.14778206e-02 8.13167810e-01 3.46726686e-01 4.77918953e-01 7.89820492e-01 -5.82877174e-02 -2.96206288e-02 8.92345667e-01 4.08153415e-01 4.54571635e-01 8.74594510e-01 -3.46669704e-02 -5.55367805e-02 9.41882551e-01 4.49525297e-01 4.36820507e-01 9.33717549e-01 4.59023654e-01 -5.50283253e-01 9.50023592e-01 4.61232901e-01 -6.14925399e-02 9.53590214e-01 8.83928955e-01 8.50251675e-01 8.13167810e-01 8.36874723e-01 8.73958528e-01 7.89820492e-01 9.22008336e-01 8.91350091e-01 8.92345667e-01 8.98301423e-01 8.97305846e-01 8.74594510e-01 9.45629060e-01 9.17266250e-01 9.41882551e-01 9.39673305e-01 9.15057003e-01 9.33717549e-01 4.59023654e-01 4.31716651e-01 9.50023592e-01 9.51380908e-01 4.33073997e-01 9.53590214e-01 1.14778206e-02 -9.63671133e-02 8.13167810e-01 4.77918953e-01 3.46726686e-01 7.89820492e-01 -2.96206288e-02 -5.82877174e-02 8.92345667e-01 4.54571635e-01 4.08153415e-01 8.74594510e-01 -5.55367805e-02 -3.46669704e-02 9.41882551e-01 4.36820507e-01 4.49525297e-01 9.33717549e-01 -5.50283253e-01 4.59023654e-01 9.50023592e-01 -6.14925399e-02 4.61232901e-01 9.53590214e-01 -6.13446593e-01 -6.64323509e-01 6.57897890e-01 -6.06495261e-01 -6.50946558e-01 6.37569666e-01 -6.49230599e-01 -6.91569626e-01 7.20928013e-01 -6.26823485e-01 -6.98520958e-01 7.05472291e-01 -6.71795487e-01 -7.07643151e-01 7.59566486e-01 -6.42279267e-01 -7.30050206e-01 7.52457261e-01 -3.04217845e-01 -3.37079644e-01 7.64588237e-01 -2.77806967e-01 -7.38177359e-01 7.67693579e-01 1.16865128e-01 7.88393915e-02 6.57897890e-01 -2.61667669e-01 -2.79365122e-01 6.37569666e-01 1.52649119e-01 5.15932702e-02 7.20928013e-01 -2.41339400e-01 -3.26939523e-01 7.05472291e-01 1.75214037e-01 3.55197527e-02 7.59566486e-01 -2.25883663e-01 -3.58468771e-01 7.52457261e-01 5.50799310e-01 -3.37079644e-01 7.64588237e-01 1.52806982e-01 -3.66595894e-01 7.67693579e-01 6.13446593e-01 6.64323509e-01 6.57897890e-01 6.06495261e-01 6.50946558e-01 6.37569666e-01 6.49230599e-01 6.91569626e-01 7.20928013e-01 6.26823485e-01 6.98520958e-01 7.05472291e-01 6.71795487e-01 7.07643151e-01 7.59566486e-01 6.42279267e-01 7.30050206e-01 7.52457261e-01 3.04217845e-01 3.37079644e-01 7.64588237e-01 2.77806967e-01 7.38177359e-01 7.67693579e-01 -1.16865128e-01 -6.70490041e-02 6.69688284e-01 2.61667669e-01 2.79365122e-01 6.37569666e-01 -1.52649119e-01 -4.26289439e-02 7.29892373e-01 2.41339400e-01 3.26939523e-01 7.05472291e-01 -1.75214037e-01 -3.13964225e-02 7.63689816e-01 2.25883663e-01 3.58468771e-01 7.52457261e-01 -6.75799310e-01 3.35278511e-01 7.62787104e-01 -1.52806982e-01 3.66595894e-01 7.67693579e-01 -4.67032462e-01 -4.22581106e-01 5.16322851e-01 -4.17742044e-01 -4.60081130e-01 5.04532456e-01 -5.03242910e-01 -4.31545436e-01 5.61497629e-01 -4.44988191e-01 -4.80835825e-01 5.52533269e-01 -5.23439765e-01 -4.35668766e-01 5.85817814e-01 -4.61061686e-01 -4.93923485e-01 5.81694484e-01 -3.97656560e-01 6.27138019e-02 5.83233476e-01 -3.37079644e-01 -1.24664247e-01 5.85034609e-01 1.79532453e-01 3.65003310e-02 5.16322851e-01 3.42032462e-01 2.10790724e-01 5.04532456e-01 2.03952506e-01 1.57456156e-02 5.61497629e-01 3.78242910e-01 1.99000329e-01 5.52533269e-01 2.15185031e-01 2.65795947e-03 5.85817814e-01 3.98439735e-01 1.90036014e-01 5.81694484e-01 3.35278511e-01 -4.96245712e-01 5.83233476e-01 3.97656560e-01 -3.10668766e-01 5.85034609e-01 4.29532439e-01 4.60081130e-01 5.16322851e-01 4.67032462e-01 4.10790712e-01 5.04532456e-01 4.53952491e-01 4.80835825e-01 5.61497629e-01 5.03242910e-01 4.22581106e-01 5.52533269e-01 4.65185016e-01 4.93923485e-01 5.85817814e-01 5.23439765e-01 4.31545436e-01 5.81694484e-01 3.35278511e-01 -3.35753459e-04 5.83233476e-01 5.22656560e-01 -6.09126762e-02 5.85034609e-01 -3.42032462e-01 -1.99000329e-01 5.16322851e-01 -1.47413790e-01 -3.65003310e-02 4.84204173e-01 -3.78242910e-01 -1.90036014e-01 5.61497629e-01 -1.79532453e-01 -1.57456156e-02 5.37077546e-01 -3.98439735e-01 -1.85912684e-01 5.85817814e-01 -2.03952506e-01 -2.65795947e-03 5.74585259e-01 -5.22656560e-01 3.08867663e-01 5.83233476e-01 -3.40185016e-01 -3.35753459e-04 5.88140011e-01 
scalaire2 1 348 float
0.00000000e+00 0.00000000e+00 0.00000000e+00 0.00000000e+00 0.00000000e+00 0.00000000e+00 0.00000000e+00 0.00000000e+00 0.00000000e+00 0.00000000e+00 0.00000000e+00 0.00000000e+00 0.00000000e+00 0.00000000e+00 0.00000000e+00 0.00000000e+00 0.00000000e+00 0.00000000e+00 0.00000000e+00 0.00000000e+00 0.00000000e+00 0.00000000e+00 0.00000000e+00 0.00000000e+00 0.00000000e+00 0.00000000e+00 0.00000000e+00 0.00000000e+00 0.00000000e+00 0.00000000e+00 0.00000000e+00 0.00000000e+00 0.00000000e+00 0.00000000e+00 0.00000000e+00 0.00000000e+00 0.00000000e+00 0.00000000e+00 0.00000000e+00 0.00000000e+00 0.00000000e+00 0.00000000e+00 0.00000000e+00 0.00000000e+00 0.00000000e+00 0.00000000e+00 0.00000000e+00 0.00000000e+00 0.00000000e+00 0.00000000e+00 0.00000000e+00 0.00000000e+00 0.00000000e+00 0.00000000e+00 0.00000000e+00 0.00000000e+00 0.00000000e+00 0.00000000e+00 0.00000000e+00 0.00000000e+00 0.00000000e+00 0.00000000e+00 0.00000000e+00 0.00000000e+00 0.00000000e+00 0.00000000e+00 0.00000000e+00 0.00000000e+00 0.00000000e+00 0.00000000e+00 0.00000000e+00 0.00000000e+00 0.00000000e+00 0.00000000e+00 0.00000000e+00 0.00000000e+00 0.00000000e+00 0.00000000e+00 0.00000000e+00 0.00000000e+00 0.00000000e+00 0.00000000e+00 0.00000000e+00 0.00000000e+00 0.00000000e+00 0.00000000e+00 0.00000000e+00 0.00000000e+00 0.00000000e+00 0.00000000e+00 0.00000000e+00 0.00000000e+00 0.00000000e+00 0.00000000e+00 0.00000000e+00 0.00000000e+00 0.00000000e+00 0.00000000e+00 0.00000000e+00 0.00000000e+00 0.00000000e+00 0.00000000e+00 0.00000000e+00 0.00000000e+00 0.00000000e+00 0.00000000e+00 0.00000000e+00 0.00000000e+00 0.00000000e+00 0.00000000e+00 0.00000000e+00 0.00000000e+00 0.00000000e+00 0.00000000e+00 0.00000000e+00 0.00000000e+00 0.00000000e+00 0.00000000e+00 0.00000000e+00 0.00000000e+00 0.00000000e+00 0.00000000e+00 0.00000000e+00 0.00000000e+00 0.00000000e+00 0.00000000e+00 0.00000000e+00 0.00000000e+00 0.00000000e+00 0.00000000e+00 0.00000000e+00 0.00000000e+00 0.00000000e+00 0.00000000e+00 0.00000000e+00 0.00000000e+00 0.00000000e+00 0.00000000e+00 0.00000000e+00 0.00000000e+00 0.00000000e+00 0.00000000e+00 0.00000000e+00 0.00000000e+00 0.00000000e+00 0.00000000e+00 0.00000000e+00 0.00000000e+00 0.00000000e+00 0.00000000e+00 0.00000000e+00 0.00000000e+00 0.00000000e+00 0.00000000e+00 0.00000000e+00 0.00000000e+00 0.00000000e+00 0.00000000e+00 0.00000000e+00 0.00000000e+00 0.00000000e+00 0.00000000e+00 0.00000000e+00 0.00000000e+00 0.00000000e+00 0.00000000e+00 0.00000000e+00 0.00000000e+00 0.00000000e+00 0.00000000e+00 0.00000000e+00 0.00000000e+00 0.00000000e+00 0.00000000e+00 0.00000000e+00 0.00000000e+00 0.00000000e+00 0.00000000e+00 0.00000000e+00 0.00000000e+00 0.00000000e+00 0.00000000e+00 0.00000000e+00 0.00000000e+00 0.00000000e+00 0.00000000e+00 0.00000000e+00 0.00000000e+00 0.00000000e+00 0.00000000e+00 0.00000000e+00 0.00000000e+00 0.00000000e+00 0.00000000e+00 0.00000000e+00 0.00000000e+00 0.00000000e+00 0.00000000e+00 0.00000000e+00 0.00000000e+00 0.00000000e+00 0.00000000e+00 0.00000000e+00 0.00000000e+00 0.00000000e+00 0.00000000e+00 0.00000000e+00 0.00000000e+00 0.00000000e+00 0.00000000e+00 0.00000000e+00 0.00000000e+00 0.00000000e+00 0.00000000e+00 0.00000000e+00 0.00000000e+00 0.00000000e+00 0.00000000e+00 0.00000000e+00 0.00000000e+00 0.00000000e+00 0.00000000e+00 0.00000000e+00 0.00000000e+00 0.00000000e+00 0.00000000e+00 0.00000000e+00 0.00000000e+00 0.00000000e+00 0.00000000e+00 0.00000000e+00 0.00000000e+00 0.00000000e+00 0.00000000e+00 0.00000000e+00 0.00000000e+00 0.00000000e+00 0.00000000e+00 0.00000000e+00 0.00000000e+00 0.00000000e+00 0.00000000e+00 0.00000000e+00 0.00000000e+00 0.00000000e+00 0.00000000e+00 0.00000000e+00 0.00000000e+00 0.00000000e+00 0.00000000e+00 0.00000000e+00 0.00000000e+00 0.00000000e+00 0.00000000e+00 0.00000000e+00 0.00000000e+00 0.00000000e+00 0.00000000e+00 0.00000000e+00 0.00000000e+00 0.00000000e+00 0.00000000e+00 0.00000000e+00 0.00000000e+00 0.00000000e+00 0.00000000e+00 0.00000000e+00 0.00000000e+00 0.00000000e+00 0.00000000e+00 0.00000000e+00 0.00000000e+00 0.00000000e+00 0.00000000e+00 0.00000000e+00 0.00000000e+00 0.00000000e+00 0.00000000e+00 0.00000000e+00 0.00000000e+00 0.00000000e+00 0.00000000e+00 0.00000000e+00 0.00000000e+00 0.00000000e+00 0.00000000e+00 0.00000000e+00 0.00000000e+00 0.00000000e+00 0.00000000e+00 0.00000000e+00 0.00000000e+00 0.00000000e+00 0.00000000e+00 0.00000000e+00 0.00000000e+00 0.00000000e+00 0.00000000e+00 0.00000000e+00 0.00000000e+00 0.00000000e+00 0.00000000e+00 0.00000000e+00 0.00000000e+00 0.00000000e+00 0.00000000e+00 0.00000000e+00 0.00000000e+00 0.00000000e+00 0.00000000e+00 0.00000000e+00 0.00000000e+00 0.00000000e+00 0.00000000e+00 0.00000000e+00 0.00000000e+00 0.00000000e+00 0.00000000e+00 0.00000000e+00 0.00000000e+00 0.00000000e+00 0.00000000e+00 0.00000000e+00 0.00000000e+00 0.00000000e+00 0.00000000e+00 0.00000000e+00 0.00000000e+00 0.00000000e+00 0.00000000e+00 0.00000000e+00 0.00000000e+00 0.00000000e+00 0.00000000e+00 0.00000000e+00 0.00000000e+00 0.00000000e+00 0.00000000e+00 0.00000000e+00 0.00000000e+00 0.00000000e+00 0.00000000e+00 0.00000000e+00 0.00000000e+00 0.00000000e+00 0.00000000e+00 0.00000000e+00 0.00000000e+00 
