# vtk DataFile Version 2.0
Tornado8_6.vtk, Created by Freefem++ 
ASCII
DATASET UNSTRUCTURED_GRID
POINTS 198 float
-0.03535534 0.03535534 -0.12500000
-0.03535534 0.03535534 -0.04687500
-0.03535534 0.03535534 0.03125000
-0.03535534 0.03535534 0.10937500
-0.03535534 0.03535534 0.18750000
-0.03535534 0.03535534 0.26562500
-0.03535534 0.03535534 0.34375000
-0.03535534 0.03535534 0.42187500
-0.03535534 0.03535534 0.50000000
-0.10606602 0.10606602 -0.12500000
-0.10606602 0.10606602 -0.04687500
-0.10606602 0.10606602 0.03125000
-0.10606602 0.10606602 0.10937500
-0.10606602 0.10606602 0.18750000
-0.10606602 0.10606602 0.26562500
-0.10606602 0.10606602 0.34375000
-0.10606602 0.10606602 0.42187500
-0.10606602 0.10606602 0.50000000
0.00000000 0.05000000 -0.12500000
0.00000000 0.05000000 -0.04687500
0.00000000 0.05000000 0.03125000
0.00000000 0.05000000 0.10937500
0.00000000 0.05000000 0.18750000
0.00000000 0.05000000 0.26562500
0.00000000 0.05000000 0.34375000
0.00000000 0.05000000 0.42187500
0.00000000 0.05000000 0.50000000
0.00000000 0.15000001 -0.12500000
0.00000000 0.15000001 -0.04687500
0.00000000 0.15000001 0.03125000
0.00000000 0.15000001 0.10937500
0.00000000 0.15000001 0.18750000
0.00000000 0.15000001 0.26562500
0.00000000 0.15000001 0.34375000
0.00000000 0.15000001 0.42187500
0.00000000 0.15000001 0.50000000
-0.15000001 0.00000000 -0.12500000
-0.15000001 0.00000000 -0.04687500
-0.15000001 0.00000000 0.03125000
-0.15000001 0.00000000 0.10937500
-0.15000001 0.00000000 0.18750000
-0.15000001 0.00000000 0.26562500
-0.15000001 0.00000000 0.34375000
-0.15000001 0.00000000 0.42187500
-0.15000001 0.00000000 0.50000000
-0.05000000 0.00000000 -0.12500000
-0.05000000 0.00000000 -0.04687500
-0.05000000 0.00000000 0.03125000
-0.05000000 0.00000000 0.10937500
-0.05000000 0.00000000 0.18750000
-0.05000000 0.00000000 0.26562500
-0.05000000 0.00000000 0.34375000
-0.05000000 0.00000000 0.42187500
-0.05000000 0.00000000 0.50000000
-0.01178511 0.01178511 -0.12500000
-0.01178511 0.01178511 -0.04687500
-0.01178511 0.01178511 0.03125000
-0.01178511 0.01178511 0.10937500
-0.01178511 0.01178511 0.18750000
-0.01178511 0.01178511 0.26562500
-0.01178511 0.01178511 0.34375000
-0.01178511 0.01178511 0.42187500
-0.01178511 0.01178511 0.50000000
0.03535534 0.03535534 -0.12500000
0.03535534 0.03535534 -0.04687500
0.03535534 0.03535534 0.03125000
0.03535534 0.03535534 0.10937500
0.03535534 0.03535534 0.18750000
0.03535534 0.03535534 0.26562500
0.03535534 0.03535534 0.34375000
0.03535534 0.03535534 0.42187500
0.03535534 0.03535534 0.50000000
-0.50000000 0.00000000 -0.12500000
-0.50000000 0.00000000 -0.04687500
-0.50000000 0.00000000 0.03125000
-0.50000000 0.00000000 0.10937500
-0.50000000 0.00000000 0.18750000
-0.50000000 0.00000000 0.26562500
-0.50000000 0.00000000 0.34375000
-0.50000000 0.00000000 0.42187500
-0.50000000 0.00000000 0.50000000
0.00000000 0.50000000 -0.12500000
0.00000000 0.50000000 -0.04687500
0.00000000 0.50000000 0.03125000
0.00000000 0.50000000 0.10937500
0.00000000 0.50000000 0.18750000
0.00000000 0.50000000 0.26562500
0.00000000 0.50000000 0.34375000
0.00000000 0.50000000 0.42187500
0.00000000 0.50000000 0.50000000
0.10606602 0.10606602 -0.12500000
0.10606602 0.10606602 -0.04687500
0.10606602 0.10606602 0.03125000
0.10606602 0.10606602 0.10937500
0.10606602 0.10606602 0.18750000
0.10606602 0.10606602 0.26562500
0.10606602 0.10606602 0.34375000
0.10606602 0.10606602 0.42187500
0.10606602 0.10606602 0.50000000
-0.10606602 -0.10606602 -0.12500000
-0.10606602 -0.10606602 -0.04687500
-0.10606602 -0.10606602 0.03125000
-0.10606602 -0.10606602 0.10937500
-0.10606602 -0.10606602 0.18750000
-0.10606602 -0.10606602 0.26562500
-0.10606602 -0.10606602 0.34375000
-0.10606602 -0.10606602 0.42187500
-0.10606602 -0.10606602 0.50000000
-0.03535534 -0.03535534 -0.12500000
-0.03535534 -0.03535534 -0.04687500
-0.03535534 -0.03535534 0.03125000
-0.03535534 -0.03535534 0.10937500
-0.03535534 -0.03535534 0.18750000
-0.03535534 -0.03535534 0.26562500
-0.03535534 -0.03535534 0.34375000
-0.03535534 -0.03535534 0.42187500
-0.03535534 -0.03535534 0.50000000
0.01178511 -0.01178511 -0.12500000
0.01178511 -0.01178511 -0.04687500
0.01178511 -0.01178511 0.03125000
0.01178511 -0.01178511 0.10937500
0.01178511 -0.01178511 0.18750000
0.01178511 -0.01178511 0.26562500
0.01178511 -0.01178511 0.34375000
0.01178511 -0.01178511 0.42187500
0.01178511 -0.01178511 0.50000000
0.05000000 0.00000000 -0.12500000
0.05000000 0.00000000 -0.04687500
0.05000000 0.00000000 0.03125000
0.05000000 0.00000000 0.10937500
0.05000000 0.00000000 0.18750000
0.05000000 0.00000000 0.26562500
0.05000000 0.00000000 0.34375000
0.05000000 0.00000000 0.42187500
0.05000000 0.00000000 0.50000000
-0.00000000 -0.50000000 -0.12500000
-0.00000000 -0.50000000 -0.04687500
-0.00000000 -0.50000000 0.03125000
-0.00000000 -0.50000000 0.10937500
-0.00000000 -0.50000000 0.18750000
-0.00000000 -0.50000000 0.26562500
-0.00000000 -0.50000000 0.34375000
-0.00000000 -0.50000000 0.42187500
-0.00000000 -0.50000000 0.50000000
0.50000000 0.00000000 -0.12500000
0.50000000 0.00000000 -0.04687500
0.50000000 0.00000000 0.03125000
0.50000000 0.00000000 0.10937500
0.50000000 0.00000000 0.18750000
0.50000000 0.00000000 0.26562500
0.50000000 0.00000000 0.34375000
0.50000000 0.00000000 0.42187500
0.50000000 0.00000000 0.50000000
-0.00000000 -0.15000001 -0.12500000
-0.00000000 -0.15000001 -0.04687500
-0.00000000 -0.15000001 0.03125000
-0.00000000 -0.15000001 0.10937500
-0.00000000 -0.15000001 0.18750000
-0.00000000 -0.15000001 0.26562500
-0.00000000 -0.15000001 0.34375000
-0.00000000 -0.15000001 0.42187500
-0.00000000 -0.15000001 0.50000000
0.15000001 0.00000000 -0.12500000
0.15000001 0.00000000 -0.04687500
0.15000001 0.00000000 0.03125000
0.15000001 0.00000000 0.10937500
0.15000001 0.00000000 0.18750000
0.15000001 0.00000000 0.26562500
0.15000001 0.00000000 0.34375000
0.15000001 0.00000000 0.42187500
0.15000001 0.00000000 0.50000000
0.03535534 -0.03535534 -0.12500000
0.03535534 -0.03535534 -0.04687500
0.03535534 -0.03535534 0.03125000
0.03535534 -0.03535534 0.10937500
0.03535534 -0.03535534 0.18750000
0.03535534 -0.03535534 0.26562500
0.03535534 -0.03535534 0.34375000
0.03535534 -0.03535534 0.42187500
0.03535534 -0.03535534 0.50000000
-0.00000000 -0.05000000 -0.12500000
-0.00000000 -0.05000000 -0.04687500
-0.00000000 -0.05000000 0.03125000
-0.00000000 -0.05000000 0.10937500
-0.00000000 -0.05000000 0.18750000
-0.00000000 -0.05000000 0.26562500
-0.00000000 -0.05000000 0.34375000
-0.00000000 -0.05000000 0.42187500
-0.00000000 -0.05000000 0.50000000
0.10606602 -0.10606602 -0.12500000
0.10606602 -0.10606602 -0.04687500
0.10606602 -0.10606602 0.03125000
0.10606602 -0.10606602 0.10937500
0.10606602 -0.10606602 0.18750000
0.10606602 -0.10606602 0.26562500
0.10606602 -0.10606602 0.34375000
0.10606602 -0.10606602 0.42187500
0.10606602 -0.10606602 0.50000000

CELLS 1308 6144
4 133 134 70 124
4 70 125 124 134
4 70 125 134 71
4 132 133 69 123
4 69 124 123 133
4 69 124 133 70
4 131 132 68 122
4 68 123 122 132
4 68 123 132 69
4 130 131 67 121
4 67 122 121 131
4 67 122 131 68
4 129 130 66 120
4 66 121 120 130
4 66 121 130 67
4 128 129 65 119
4 65 120 119 129
4 65 120 129 66
4 127 128 64 118
4 64 119 118 128
4 64 119 128 65
4 126 127 63 117
4 63 118 117 127
4 63 118 127 64
4 61 62 25 7
4 25 26 7 62
4 7 8 62 26
4 60 61 24 6
4 24 25 6 61
4 6 7 61 25
4 59 60 23 5
4 23 24 5 60
4 5 6 60 24
4 58 59 22 4
4 22 23 4 59
4 4 5 59 23
4 57 58 21 3
4 21 22 3 58
4 3 4 58 22
4 56 57 20 2
4 20 21 2 57
4 2 3 57 21
4 55 56 19 1
4 19 20 1 56
4 1 2 56 20
4 54 55 18 0
4 18 19 0 55
4 0 1 55 19
4 61 62 7 52
4 7 53 52 62
4 7 53 62 8
4 60 61 6 51
4 6 52 51 61
4 6 52 61 7
4 59 60 5 50
4 5 51 50 60
4 5 51 60 6
4 58 59 4 49
4 4 50 49 59
4 4 50 59 5
4 57 58 3 48
4 3 49 48 58
4 3 49 58 4
4 56 57 2 47
4 2 48 47 57
4 2 48 57 3
4 55 56 1 46
4 1 47 46 56
4 1 47 56 2
4 54 55 0 45
4 0 46 45 55
4 0 46 55 1
4 115 116 61 52
4 61 62 52 116
4 52 53 116 62
4 114 115 60 51
4 60 61 51 115
4 51 52 115 61
4 113 114 59 50
4 59 60 50 114
4 50 51 114 60
4 112 113 58 49
4 58 59 49 113
4 49 50 113 59
4 111 112 57 48
4 57 58 48 112
4 48 49 112 58
4 110 111 56 47
4 56 57 47 111
4 47 48 111 57
4 109 110 55 46
4 55 56 46 110
4 46 47 110 56
4 108 109 54 45
4 54 55 45 109
4 45 46 109 55
4 124 125 70 61
4 70 71 61 125
4 61 62 125 71
4 123 124 69 60
4 69 70 60 124
4 60 61 124 70
4 122 123 68 59
4 68 69 59 123
4 59 60 123 69
4 121 122 67 58
4 67 68 58 122
4 58 59 122 68
4 120 121 66 57
4 66 67 57 121
4 57 58 121 67
4 119 120 65 56
4 65 66 56 120
4 56 57 120 66
4 118 119 64 55
4 64 65 55 119
4 55 56 119 65
4 117 118 63 54
4 63 64 54 118
4 54 55 118 64
4 133 179 124 178
4 133 134 124 179
4 124 179 134 125
4 132 178 123 177
4 132 133 123 178
4 123 178 133 124
4 131 177 122 176
4 131 132 122 177
4 122 177 132 123
4 130 176 121 175
4 130 131 121 176
4 121 176 131 122
4 129 175 120 174
4 129 130 120 175
4 120 175 130 121
4 128 174 119 173
4 128 129 119 174
4 119 174 129 120
4 127 173 118 172
4 127 128 118 173
4 118 173 128 119
4 126 172 117 171
4 126 127 117 172
4 117 172 127 118
4 70 71 25 61
4 25 62 61 71
4 25 62 71 26
4 69 70 24 60
4 24 61 60 70
4 24 61 70 25
4 68 69 23 59
4 23 60 59 69
4 23 60 69 24
4 67 68 22 58
4 22 59 58 68
4 22 59 68 23
4 66 67 21 57
4 21 58 57 67
4 21 58 67 22
4 65 66 20 56
4 20 57 56 66
4 20 57 66 21
4 64 65 19 55
4 19 56 55 65
4 19 56 65 20
4 63 64 18 54
4 18 55 54 64
4 18 55 64 19
4 115 125 124 61
4 115 125 61 116
4 61 62 116 125
4 114 124 123 60
4 114 124 60 115
4 60 61 115 124
4 113 123 122 59
4 113 123 59 114
4 59 60 114 123
4 112 122 121 58
4 112 122 58 113
4 58 59 113 122
4 111 121 120 57
4 111 121 57 112
4 57 58 112 121
4 110 120 119 56
4 110 120 56 111
4 56 57 111 120
4 109 119 118 55
4 109 119 55 110
4 55 56 110 119
4 108 118 117 54
4 108 118 54 109
4 54 55 109 118
4 124 188 187 178
4 124 188 178 179
4 124 179 125 188
4 123 187 186 177
4 123 187 177 178
4 123 178 124 187
4 122 186 185 176
4 122 186 176 177
4 122 177 123 186
4 121 185 184 175
4 121 185 175 176
[...]
CELL_DATA 1308
Scalars  Label int1
LOOKUP_TABLE FreeFempp_table
0
0
0
0
0
0
0
0
0
0
0
0
0
0
0
0
0
0
0
0
0
0
0
0
0
0
0
0
0
0
0
0
0
0
0
0
0
0
0
0
0
0
0
0
0
0
0
0
0
0
0
0
0
0
0
0
0
0
0
0
0
0
0
0
0
0
0
0
0
0
0
0
0
0
0
0
0
0
0
0
0
0
0
0
0
0
0
0
0
0
0
0
0
0
0
0
0
0
0
0
0
0
0
0
0
0
0
0
0
0
0
0
0
0
0
0
0
0
0
0
0
0
0
0
0
0
0
0
0
0
0
0
0
0
0
0
0
0
0
0
0
0
0
0
0
0
0
0
0
0
0
0
0
0
0
0
0
0
0
0
0
0
0
0
0
0
0
0
0
0
0
0
0
0
0
0
0
0
0
0
0
0
0
0
0
0
0
0
0
0
0
0
0
0
0
0
0
0
0
0
0
0
0
0
0
0
0
0
0
0
0
0
0
0
0
0
0
0
0
0
0
0
0
0
0
0
0
0
0
0
0
0
0
0
0
0
0
0
0
0
1
1
1
1
1
1
1
1
1
1
1
1
1
1
1
1
1
1
1
1
1
1
1
1
1
1
1
1
1
1
1
1
1
1
1
1
1
1
1
1
1
1
1
1
1
1
1
1
1
1
1
1
1
1
1
1
1
1
1
1
1
1
1
1
1
1
1
1
1
1
1
1
1
1
1
1
1
1
1
1
1
1
1
1
1
1
1
1
1
1
1
1
1
1
1
1
1
1
1
1
1
1
1
1
1
1
1
1
1
1
1
1
1
1
1
1
1
1
1
1
1
1
1
1
1
1
1
1
1
1
1
1
1
1
1
1
1
1
1
1
1
1
1
1
1
1
1
1
1
1
1
1
1
1
1
1
1
1
1
1
1
1
1
1
1
1
1
1
1
1
1
1
1
1
1
1
1
1
1
1
1
1
1
1
1
1
1
1
1
1
1
1
1
1
1
1
1
1
1
1
1
1
1
1
1
1
1
1
1
1
1
1
1
1
1
1
1
1
1
1
1
1
1
1
1
1
1
1
1
1
1
1
1
1
1
1
1
1
1
1
1
1
1
1
1
1
1
1
1
1
1
1
1
1
1
1
1
1
1
1
1
1
1
1
1
1
1
1
1
1
1
1
1
1
1
1
1
1
1
1
1
1
1
1
1
1
1
1
1
1
1
1
1
1
1
1
1
1
1
1
1
1
1
1
1
1
1
1
1
1
1
1
1
1
1
1
1
1
1
1
1
1
1
1
1
1
1
1
1
1
1
1
1
1
1
1
1
1
1
1
1
1
1
1
1
1
1
1
1
1
1
1
1
1
1
1
1
1
1
1
1
1
1
1
1
1
1
1
1
1
1
1
1
1
1
1
1
1
1
1
1
1
1
1
2
2
2
2
2
2
2
2
2
2
2
2
2
2
2
2
2
2
2
2
2
2
2
2
2
2
2
2
2
2
2
2
2
2
2
2
2
2
2
2
2
2
2
2
2
2
2
2
2
2
2
2
2
2
2
2
2
2
2
2
2
2
2
2
2
2
2
2
2
2
2
2
2
2
2
2
2
2
2
2
2
2
2
2
2
2
2
2
2
2
2
2
2
2
2
2
2
2
2
2
2
2
2
2
2
2
2
2
2
2
2
2
2
2
2
2
2
2
2
2
2
2
2
2
2
2
2
2
2
2
2
2
2
2
2
2
2
2
2
2
2
2
2
2
2
2
2
2
2
2
2
2
2
2
2
2
2
2
2
2
2
2
2
2
2
2
2
2
2
2
2
2
2
2
2
2
2
2
2
2
2
2
2
2
2
2
2
2
2
2
2
2
2
2
2
2
2
2
2
2
2
2
2
2
2
2
2
2
2
2
2
2
2
2
2
2
2
2
2
2
2
2
2
2
2
2
2
2
2
2
2
2
2
2
2
2
2
2
2
2
2
2
2
2
2
2
2
2
2
2
2
2
2
2
2
2
2
2
2
2
2
2
2
2
2
2
2
2
2
2
2
2
2
2
2
2
2
2
2
2
2
2
2
2
2
2
2
2
1
1
1
1
1
1
1
1
1
1
1
1
1
1
1
1
1
1
1
1
1
1
1
1
1
1
2
2
2
2
2
2
2
2
2
2
2
2
1
1
1
1
1
1
1
1
1
1
1
1
1
1
1
1
1
1
1
1
1
1
1
1
1
1
2
2
2
2
2
2
2
2
2
2
2
2
1
1
1
1
1
1
1
1
1
1
1
1
1
1
1
1
1
1
1
1
1
1
1
1
1
1
1
1
1
1
1
1
1
1
1
1
1
1
1
1
1
1
1
1
1
1
1
1
1
1
1
1
1
1
1
1
1
1
1
1
1
1
1
1
1
1
1
1
1
1
1
1
1
1
1
1
1
1
1
1
1
1
1
1
1
1
1
1
1
1
1
1
1
1
1
1
1
1
1
1
1
1
1
1
1
1
1
1
1
1
1
1
1
1
1
1
1
1
1
1
1
1
1
1
1
1
1
1
1
1
1
1
1
1
1
1
1
1
1
1
1
1
1
1
1
1
1
1
1
1
1
1
1
1
1
1
1
1
1
1
1
1
1
1
1
1
1
1
1
1
1
1
1
1
1
1
1
1
1
1
1
1
1
1
1
1
1
1
1
1
1
1
1
1
1
1
1
1
1
1
1
1
1
1
1
1
1
1
1
1
1
1
1
1
1
1
1
1
1
1
1
1
1
1
1
1
1
1
1
1
1
1
1
1
1
1
1
1
1
1
1
1
1
1
1
1
1
1
1
1
1
1
1
1
1
1
1
1
1
1
1
1
1
1
1
1
1
1
1
1
1
1
1
1
1
1
1
1
1
1
1
1
1
1
1
1
1
1
1
1
1
1
1
1
1
1
1
1
1
1
1
1
1
1
1
1
1
1
1
1
1
1
1
1
1
1
1
1
1
1

LOOKUP_TABLE FreeFempp_table 3
1.00000000 0.00000000 0.00000000 1.00000000
1.00000000 1.00000000 0.00000000 1.00000000
1.00000000 0.00000000 1.00000000 1.00000000

FIELD FieldData 2
NavSto 3 1308 float
4.30099185e-12 5.41815814e-10 -5.55945623e-10 4.30099185e-12 5.41815814e-10 -5.55945623e-10 3.02680468e-43 3.28954815e-41 -3.71203963e-41 7.66933999e-12 7.97769739e-10 -8.21138879e-10 1.19703318e-11 1.33958555e-09 -1.37708456e-09 4.30099185e-12 5.41815814e-10 -5.55945623e-10 9.61688455e-12 8.85173490e-10 -9.13657650e-10 1.72862245e-11 1.68294323e-09 -1.73479653e-09 7.66933999e-12 7.97769739e-10 -8.21138879e-10 1.01212589e-11 8.99965824e-10 -9.29563093e-10 1.97381434e-11 1.78513926e-09 -1.84322069e-09 9.61688455e-12 8.85173490e-10 -9.13657650e-10 9.24118681e-12 8.64507244e-10 -8.91245466e-10 1.93624457e-11 1.76447301e-09 -1.82080861e-09 1.01212589e-11 8.99965824e-10 -9.29563093e-10 6.99452562e-12 7.32279071e-10 -7.52129414e-10 1.62357124e-11 1.59678626e-09 -1.64337488e-09 9.24118681e-12 8.64507244e-10 -8.91245466e-10 4.15309410e-12 4.12092999e-10 -4.22664237e-10 1.11476193e-11 1.14437204e-09 -1.17479371e-09 6.99452562e-12 7.32279071e-10 -7.52129414e-10 1.71378802e-42 3.45350007e-41 -3.77215534e-41 4.15309410e-12 4.12092999e-10 -4.22664237e-10 4.15309410e-12 4.12092999e-10 -4.22664237e-10 3.76414871e-12 4.11969348e-10 -4.22180624e-10 3.34910333e-43 6.51603786e-41 -6.67186225e-41 2.69049305e-43 3.47746227e-41 -3.62712095e-41 1.00315511e-11 1.14387178e-09 -1.17315868e-09 3.76414871e-12 4.11969348e-10 -4.22180624e-10 3.76414871e-12 4.11969348e-10 -4.22180624e-10 1.48732311e-11 1.59556124e-09 -1.64085290e-09 6.26740240e-12 7.31902428e-10 -7.50978113e-10 6.26740240e-12 7.31902428e-10 -7.50978113e-10 1.82441874e-11 1.76249992e-09 -1.81803306e-09 8.60582872e-12 8.63658811e-10 -8.89874840e-10 8.60582872e-12 8.63658811e-10 -8.89874840e-10 1.89271064e-11 1.78271786e-09 -1.84044746e-09 9.63835869e-12 8.98841113e-10 -9.28158217e-10 9.63835869e-12 8.98841113e-10 -9.28158217e-10 1.68520458e-11 1.68019809e-09 -1.73221659e-09 9.28874772e-12 8.83876750e-10 -9.12289189e-10 9.28874772e-12 8.83876750e-10 -9.12289189e-10 1.19549761e-11 1.33693168e-09 -1.37510470e-09 7.56329808e-12 7.96321287e-10 -8.19927348e-10 7.56329808e-12 7.96321287e-10 -8.19927348e-10 4.39167799e-12 5.40610334e-10 -5.55177349e-10 4.39167799e-12 5.40610334e-10 -5.55177349e-10 4.39167799e-12 5.40610334e-10 -5.55177349e-10 3.76414871e-12 4.11969348e-10 -4.22180624e-10 1.18129461e-42 6.42635476e-41 -6.78088327e-41 5.10072641e-43 3.46274864e-41 -3.68807743e-41 1.00315511e-11 1.14387178e-09 -1.17315868e-09 3.76414871e-12 4.11969348e-10 -4.22180624e-10 3.76414871e-12 4.11969348e-10 -4.22180624e-10 1.48732311e-11 1.59556124e-09 -1.64085290e-09 6.26740240e-12 7.31902428e-10 -7.50978113e-10 6.26740240e-12 7.31902428e-10 -7.50978113e-10 1.82441874e-11 1.76249992e-09 -1.81803306e-09 8.60582872e-12 8.63658811e-10 -8.89874840e-10 8.60582872e-12 8.63658811e-10 -8.89874840e-10 1.89271064e-11 1.78271786e-09 -1.84044746e-09 9.63835869e-12 8.98841113e-10 -9.28158217e-10 9.63835869e-12 8.98841113e-10 -9.28158217e-10 1.68520458e-11 1.68019809e-09 -1.73221659e-09 9.28874772e-12 8.83876750e-10 -9.12289189e-10 9.28874772e-12 8.83876750e-10 -9.12289189e-10 1.19549761e-11 1.33693168e-09 -1.37510470e-09 7.56329808e-12 7.96321287e-10 -8.19927348e-10 7.56329808e-12 7.96321287e-10 -8.19927348e-10 4.39167799e-12 5.40610334e-10 -5.55177349e-10 4.39167799e-12 5.40610334e-10 -5.55177349e-10 4.39167799e-12 5.40610334e-10 -5.55177349e-10 3.76414871e-12 4.11969348e-10 -4.22180624e-10 3.76414871e-12 4.11969348e-10 -4.22180624e-10 1.71518932e-42 3.42449319e-41 -3.76655014e-41 6.26740240e-12 7.31902428e-10 -7.50978113e-10 1.00315511e-11 1.14387178e-09 -1.17315868e-09 3.76414871e-12 4.11969348e-10 -4.22180624e-10 8.60582872e-12 8.63658811e-10 -8.89874840e-10 1.48732311e-11 1.59556124e-09 -1.64085290e-09 6.26740240e-12 7.31902428e-10 -7.50978113e-10 9.63835869e-12 8.98841113e-10 -9.28158217e-10 1.82441874e-11 1.76249992e-09 -1.81803306e-09 8.60582872e-12 8.63658811e-10 -8.89874840e-10 9.28874772e-12 8.83876750e-10 -9.12289189e-10 1.89271064e-11 1.78271786e-09 -1.84044746e-09 9.63835869e-12 8.98841113e-10 -9.28158217e-10 7.56329808e-12 7.96321287e-10 -8.19927348e-10 1.68520458e-11 1.68019809e-09 -1.73221659e-09 9.28874772e-12 8.83876750e-10 -9.12289189e-10 4.39167799e-12 5.40610334e-10 -5.55177349e-10 1.19549761e-11 1.33693168e-09 -1.37510470e-09 7.56329808e-12 7.96321287e-10 -8.19927348e-10 1.41531145e-43 3.29725529e-41 -3.70909691e-41 4.39167799e-12 5.40610334e-10 -5.55177349e-10 4.39167799e-12 5.40610334e-10 -5.55177349e-10 8.06514057e-12 9.53785162e-10 -9.78126247e-10 3.76414871e-12 4.11969348e-10 -4.22180624e-10 3.76414871e-12 4.11969348e-10 -4.22180624e-10 1.82377342e-11 2.07148809e-09 -2.12806262e-09 1.05683943e-11 1.27371824e-09 -1.30692379e-09 1.43325430e-11 1.68568759e-09 -1.72910430e-09 2.58920541e-11 2.54660204e-09 -2.62467137e-09 1.62751687e-11 1.66142855e-09 -1.71101366e-09 2.25425720e-11 2.39333109e-09 -2.46199172e-09 2.93765012e-11 2.68398037e-09 -2.77137890e-09 1.92552432e-11 1.78401460e-09 -1.84181581e-09 2.78610711e-11 2.64767341e-09 -2.73169065e-09 2.86511925e-11 2.64834976e-09 -2.73309775e-09 1.94100066e-11 1.78384263e-09 -1.84185234e-09 2.90483644e-11 2.68268363e-09 -2.77001044e-09 2.37990096e-11 2.39310749e-09 -2.46330223e-09 1.68044849e-11 1.66082847e-09 -1.71117287e-09 2.60932317e-11 2.54470534e-09 -2.62346211e-09 1.55392973e-11 1.68498249e-09 -1.72997106e-09 1.13862036e-11 1.27288946e-09 -1.30730682e-09 1.89495017e-11 2.06921080e-09 -2.12723417e-09 4.15309410e-12 4.12092999e-10 -4.22664237e-10 4.15309410e-12 4.12092999e-10 -4.22664237e-10 8.54477166e-12 9.52703361e-10 -9.77841585e-10 4.30099185e-12 5.41815814e-10 -5.55945623e-10 4.30099185e-12 5.41815814e-10 -5.55945623e-10 4.30099185e-12 5.41815814e-10 -5.55945623e-10 7.66933999e-12 7.97769739e-10 -8.21138879e-10 7.66933999e-12 7.97769739e-10 -8.21138879e-10 1.19703318e-11 1.33958555e-09 -1.37708456e-09 9.61688455e-12 8.85173490e-10 -9.13657650e-10 9.61688455e-12 8.85173490e-10 -9.13657650e-10 1.72862245e-11 1.68294323e-09 -1.73479653e-09 1.01212589e-11 8.99965824e-10 -9.29563093e-10 1.01212589e-11 8.99965824e-10 -9.29563093e-10 1.97381434e-11 1.78513926e-09 -1.84322069e-09 9.24118681e-12 8.64507244e-10 -8.91245466e-10 9.24118681e-12 8.64507244e-10 -8.91245466e-10 1.93624457e-11 1.76447301e-09 -1.82080861e-09 6.99452562e-12 7.32279071e-10 -7.52129414e-10 6.99452562e-12 7.32279071e-10 -7.52129414e-10 1.62357124e-11 1.59678626e-09 -1.64337488e-09 4.15309410e-12 4.12092999e-10 -4.22664237e-10 4.15309410e-12 4.12092999e-10 -4.22664237e-10 1.11476193e-11 1.14437204e-09 -1.17479371e-09 5.15677835e-43 4.13621268e-41 -4.38396225e-41 1.27518160e-42 7.11929685e-41 -7.47032211e-41 4.15309410e-12 4.12092999e-10 -4.22664237e-10 3.76414871e-12 4.11969348e-10 -4.22180624e-10 3.76414871e-12 4.11969348e-10 -4.22180624e-10 2.50832425e-43 3.49946265e-41 -3.60399952e-41 6.26740240e-12 7.31902428e-10 -7.50978113e-10 1.00315511e-11 1.14387178e-09 -1.17315868e-09 3.76414871e-12 4.11969348e-10 -4.22180624e-10 8.60582872e-12 8.63658811e-10 -8.89874840e-10 1.48732311e-11 1.59556124e-09 -1.64085290e-09 6.26740240e-12 7.31902428e-10 -7.50978113e-10 9.63835869e-12 8.98841113e-10 -9.28158217e-10 1.82441874e-11 1.76249992e-09 -1.81803306e-09 8.60582872e-12 8.63658811e-10 -8.89874840e-10 9.28874772e-12 8.83876750e-10 -9.12289189e-10 1.89271064e-11 1.78271786e-09 -1.84044746e-09 9.63835869e-12 8.98841113e-10 -9.28158217e-10 7.56329808e-12 7.96321287e-10 -8.19927348e-10 1.68520458e-11 1.68019809e-09 -1.73221659e-09 9.28874772e-12 8.83876750e-10 -9.12289189e-10 4.39167799e-12 5.40610334e-10 -5.55177349e-10 1.19549761e-11 1.33693168e-09 -1.37510470e-09 7.56329808e-12 7.96321287e-10 -8.19927348e-10 2.57979047e-42 3.48797201e-41 -3.89434856e-41 4.39167799e-12 5.40610334e-10 -5.55177349e-10 4.39167799e-12 5.40610334e-10 -5.55177349e-10 8.06514057e-12 9.53785162e-10 -9.78126247e-10 3.76414871e-12 4.11969348e-10 -4.22180624e-10 3.76414871e-12 4.11969348e-10 -4.22180624e-10 1.82377342e-11 2.07148809e-09 -2.12806262e-09 1.05683943e-11 1.27371824e-09 -1.30692379e-09 1.43325430e-11 1.68568759e-09 -1.72910430e-09 2.58920541e-11 2.54660204e-09 -2.62467137e-09 1.62751687e-11 1.66142855e-09 -1.71101366e-09 2.25425720e-11 2.39333109e-09 -2.46199172e-09 2.93765012e-11 2.68398037e-09 -2.77137890e-09 1.92552432e-11 1.78401460e-09 -1.84181581e-09 2.78610711e-11 2.64767341e-09 -2.73169065e-09 2.86511925e-11 2.64834976e-09 -2.73309775e-09 1.94100066e-11 1.78384263e-09 -1.84185234e-09 2.90483644e-11 2.68268363e-09 -2.77001044e-09 2.37990096e-11 2.39310749e-09 -2.46330223e-09 1.68044849e-11 1.66082847e-09 -1.71117287e-09 2.60932317e-11 2.54470534e-09 -2.62346211e-09 1.55392973e-11 1.68498249e-09 -1.72997106e-09 1.13862036e-11 1.27288946e-09 -1.30730682e-09 1.89495017e-11 2.06921080e-09 -2.12723417e-09 4.15309410e-12 4.12092999e-10 -4.22664237e-10 4.15309410e-12 4.12092999e-10 -4.22664237e-10 8.54477166e-12 9.52703361e-10 -9.77841585e-10 4.30099185e-12 5.41815814e-10 -5.55945623e-10 4.30099185e-12 5.41815814e-10 -5.55945623e-10 4.30099185e-12 5.41815814e-10 -5.55945623e-10 7.66933999e-12 7.97769739e-10 -8.21138879e-10 7.66933999e-12 7.97769739e-10 -8.21138879e-10 1.19703318e-11 1.33958555e-09 -1.37708456e-09 9.61688455e-12 8.85173490e-10 -9.13657650e-10 9.61688455e-12 8.85173490e-10 -9.13657650e-10 1.72862245e-11 1.68294323e-09 -1.73479653e-09 1.01212589e-11 8.99965824e-10 -9.29563093e-10 1.01212589e-11 8.99965824e-10 -9.29563093e-10 1.97381434e-11 1.78513926e-09 -1.84322069e-09 9.24118681e-12 8.64507244e-10 -8.91245466e-10 9.24118681e-12 8.64507244e-10 -8.91245466e-10 1.93624457e-11 1.76447301e-09 -1.82080861e-09 6.99452562e-12 7.32279071e-10 -7.52129414e-10 6.99452562e-12 7.32279071e-10 -7.52129414e-10 1.62357124e-11 1.59678626e-09 -1.64337488e-09 4.15309410e-12 4.12092999e-10 -4.22664237e-10 4.15309410e-12 4.12092999e-10 -4.22664237e-10 1.11476193e-11 1.14437204e-09 -1.17479371e-09 2.85864887e-43 4.08912905e-41 -4.20585721e-41 3.62936302e-43 6.51057280e-41 -6.71684393e-41 4.15309410e-12 4.12092999e-10 -4.22664237e-10 4.30099185e-12 5.41815814e-10 -5.55945623e-10 4.30099185e-12 5.41815814e-10 -5.55945623e-10 2.51813334e-42 4.37303212e-41 -4.79902685e-41 7.66933999e-12 7.97769739e-10 -8.21138879e-10 1.19703318e-11 1.33958555e-09 -1.37708456e-09 4.30099185e-12 5.41815814e-10 -5.55945623e-10 9.61688455e-12 8.85173490e-10 -9.13657650e-10 1.72862245e-11 1.68294323e-09 -1.73479653e-09 7.66933999e-12 7.97769739e-10 -8.21138879e-10 1.01212589e-11 8.99965824e-10 -9.29563093e-10 1.97381434e-11 1.78513926e-09 -1.84322069e-09 9.61688455e-12 8.85173490e-10 -9.13657650e-10 9.24118681e-12 8.64507244e-10 -8.91245466e-10 1.93624457e-11 1.76447301e-09 -1.82080861e-09 1.01212589e-11 8.99965824e-10 -9.29563093e-10 6.99452562e-12 7.32279071e-10 -7.52129414e-10 1.62357124e-11 1.59678626e-09 -1.64337488e-09 9.24118681e-12 8.64507244e-10 -8.91245466e-10 4.15309410e-12 4.12092999e-10 -4.22664237e-10 1.11476193e-11 1.14437204e-09 -1.17479371e-09 6.99452562e-12 7.32279071e-10 -7.52129414e-10 1.90576591e-43 2.83594783e-41 -2.94875236e-41 4.15309410e-12 4.12092999e-10 -4.22664237e-10 4.15309410e-12 4.12092999e-10 -4.22664237e-10 -6.24979115e-43 2.00848109e-41 -2.13417756e-41 -9.59889448e-43 7.27414033e-42 -8.82397643e-42 6.16571324e-44 -1.30769173e-41 1.32058367e-41 1.44333742e-43 3.67098159e-41 -3.84474260e-41 -5.35296013e-43 5.72052072e-41 -6.00148106e-41 5.11473939e-43 2.04281290e-41 -2.09858458e-41 8.18358303e-43 4.27536161e-41 -4.49256288e-41 3.83955779e-43 7.97212709e-41 -8.37443988e-41 1.60308544e-42 3.72339015e-41 -3.83325195e-41 1.26397121e-42 4.47014210e-41 -4.70527998e-41 1.02294788e-42 8.76035748e-41 -9.22811091e-41 2.31774766e-42 4.33589771e-41 -4.48821885e-41 1.57505947e-42 4.53025781e-41 -4.75250374e-41 1.46295560e-42 9.00936822e-41 -9.48146567e-41 2.69049305e-42 4.53362092e-41 -4.70738193e-41 1.83429969e-42 4.33029251e-41 -4.50517456e-41 1.82308930e-42 8.86657590e-41 -9.27491428e-41 2.81240602e-42 4.58995312e-41 -4.76329374e-41 2.06971783e-42 2.96823041e-41 -3.08916246e-41 2.21825547e-42 7.30693071e-41 -7.60036261e-41 2.75355148e-42 4.38087939e-41 -4.52030859e-41 8.63199854e-43 -3.86758376e-43 -1.59888155e-42 1.47136339e-42 2.93628080e-41 -3.22775088e-41 2.25328793e-42 2.98672755e-41 -3.20575050e-41 -4.28797330e-43 2.87546445e-41 -3.13862830e-41 5.92749250e-43 8.40498819e-42 -9.35646985e-42 -5.18480432e-44 -4.34262394e-42 2.96514755e-42 7.77720648e-43 8.50588168e-41 -8.96354576e-41 1.82308930e-42 4.82817386e-41 -5.06064927e-41 1.21912966e-42 6.94189246e-41 -7.35233278e-41 2.09353991e-42 1.08889298e-40 -1.15155905e-40 3.31266957e-42 6.64019290e-41 -6.97440259e-41 3.16693453e-42 9.37300517e-41 -9.94795793e-41 2.86705666e-42 1.16913133e-40 -1.23986888e-40 4.16185644e-42 7.26699371e-41 -7.65879676e-41 4.37205121e-42 1.01231202e-40 -1.08042914e-40 3.27763711e-42 1.19354195e-40 -1.26338267e-40 4.50517456e-42 7.45953212e-41 -7.85974296e-41 4.92276151e-42 1.03271493e-40 -1.10282189e-40 3.45139812e-42 1.16714149e-40 -1.22644444e-40 4.44071483e-42 7.39479213e-41 -7.75296401e-41 5.01804980e-42 1.02611481e-40 -1.08945350e-40 3.48643058e-42 9.50234502e-41 -9.90830118e-41 4.02172659e-42 6.57615356e-41 -6.82824716e-41 4.72938232e-42 9.33054582e-41 -9.80278341e-41 1.69977504e-42 1.70061582e-41 -2.02137303e-41 2.48029828e-42 1.75120269e-41 -1.99937265e-41 3.56490329e-42 3.92811986e-41 -4.19086332e-41 1.19951149e-42 5.16812887e-41 -5.23314912e-41 5.54914192e-43 3.89336765e-41 -4.00098738e-41 1.03696086e-43 1.74854022e-41 -1.69501062e-41 2.67788137e-42 7.30356760e-41 -7.36578525e-41 2.07252043e-42 9.41728620e-41 -9.65746876e-41 1.03135567e-42 9.67848823e-41 -9.74126640e-41 4.05956165e-42 7.76333362e-41 -7.83045582e-41 3.91382661e-42 1.04961459e-40 -1.08041513e-40 2.37800349e-42 1.21044161e-40 -1.21248751e-40 4.77001997e-42 7.78477349e-41 -7.85231607e-41 4.98021474e-42 1.06410401e-40 -1.09978107e-40 3.44859552e-42 1.25299905e-40 -1.25651631e-40 4.94518228e-42 7.61073222e-41 -7.65879676e-41 5.36276922e-42 1.04783494e-40 -1.08271326e-40 3.91522791e-42 1.23604334e-40 -1.23911218e-40 4.66071869e-42 6.87827351e-41 -6.89060494e-41 5.23945496e-42 9.74462952e-41 -1.00321760e-40 3.93764868e-42 1.15699609e-40 -1.15705214e-40 3.89000454e-42 4.55870416e-41 -4.51316196e-41 4.59906156e-42 7.31295630e-41 -7.48755808e-41 3.54248252e-42 9.13744690e-41 -9.08700015e-41 1.89455552e-42 -2.37548116e-41 2.24361897e-41 2.97916054e-42 -1.98563992e-42 5.21283029e-43 2.76896577e-42 3.35807164e-41 -3.35022437e-41 7.39885589e-43 3.09280584e-41 -2.94244652e-41 1.24715563e-43 3.10990168e-41 -2.92717236e-41 1.33123354e-43 3.04025715e-41 -2.91175808e-41 1.50919845e-42 4.64712610e-41 -4.38928718e-41 4.44211613e-43 4.68566181e-41 -4.39040822e-41 5.71729773e-43 7.60330534e-41 -7.45056380e-41 2.44666712e-42 5.00978214e-41 -4.68285921e-41 1.13365046e-42 5.08629304e-41 -4.67991648e-41 1.20932057e-42 9.44797464e-41 -9.14837702e-41 2.97495664e-42 5.03220292e-41 -4.68131778e-41 1.57225688e-42 5.13491809e-41 -4.67921583e-41 1.83710229e-42 9.77657913e-41 -9.41742633e-41 3.14030986e-42 4.86278593e-41 -4.51260144e-41 1.76283347e-42 4.97783253e-41 -4.51021924e-41 2.11876328e-42 9.60772266e-41 -9.22012351e-41 3.00578521e-42 4.23458383e-41 -3.91606869e-41 1.77964905e-42 4.35313368e-41 -3.91158453e-41 2.13417756e-42 8.82215474e-41 -8.42432611e-41 2.52093594e-42 2.49178893e-41 -2.22386066e-41 1.57505947e-42 2.60249151e-41 -2.22372053e-41 1.88754903e-42 6.49375721e-41 -6.11246390e-41 1.49658676e-42 -1.09147137e-41 9.62131526e-42 1.21212317e-42 -9.81469444e-42 1.05994216e-41 1.39989717e-42 1.29129653e-41 -1.06092307e-41 -4.94658358e-43 3.09574857e-41 -2.96416664e-41 -4.86250567e-43 3.02610403e-41 -2.94889249e-41 -6.40393398e-43 -1.10702579e-43 1.28218809e-42 -9.06640106e-43 4.68369999e-41 -4.38774575e-41 -7.80523245e-43 7.60134352e-41 -7.44790134e-41 -1.23034005e-42 3.07669091e-41 -2.97691846e-41 -9.86514119e-43 5.08405096e-41 -4.68005661e-41 -9.09442703e-43 9.44587269e-41 -9.14837702e-41 -1.96181785e-42 4.64306233e-41 -4.38676484e-41 -9.97724507e-43 5.13323653e-41 -4.68005661e-41 -7.34280395e-43 9.77475744e-41 -9.41826711e-41 -2.24347884e-42 5.00599863e-41 -4.68369999e-41 -9.82310223e-43 4.97713189e-41 -4.51106002e-41 -6.24979115e-43 9.60702201e-41 -9.22110441e-41 -2.34016844e-42 5.02968058e-41 -4.68299934e-41 -9.05238808e-43 4.35397446e-41 -3.91298583e-41 -5.50710296e-43 8.82299552e-41 -8.42586754e-41 -2.28972169e-42 4.86292606e-41 -4.51498365e-41 -7.76319349e-43 2.60501385e-41 -2.22582248e-41 -4.63829792e-43 6.49627955e-41 -6.11442572e-41 -2.03048147e-42 4.23794695e-41 -3.91957193e-41 -3.18094751e-43 -9.84972691e-42 9.52322436e-42 -1.28919459e-43 1.28765316e-41 -1.16854279e-41 -1.35925951e-42 2.49080802e-41 -2.33344220e-41 -4.31599927e-43 4.75082218e-41 -4.79986763e-41 -5.87144057e-43 1.71364789e-41 -1.72275633e-41 -1.79366203e-43 1.72261620e-41 -1.73354633e-41 -9.87915417e-43 1.15545466e-40 -1.15932225e-40 -1.43913352e-42 7.02989401e-41 -7.12223957e-41 -6.48801189e-43 8.77380994e-41 -8.96060303e-41 -1.46575819e-42 1.46156831e-40 -1.46040523e-40 -2.51813334e-42 9.81287276e-41 -9.84230002e-41 -1.67174907e-42 1.38067135e-40 -1.39887422e-40 -1.46996209e-42 1.53522056e-40 -1.53383327e-40 -2.97916054e-42 1.05833067e-40 -1.06037656e-40 -2.2771100